# vtk DataFile Version 2.0
Writen by Param 3D
ASCII
DATASET UNSTRUCTURED_GRID
POINTS 16 float
3.0 1.0 -0.5
3.0 2.0 -0.5
1.0 3.0 -0.5
3.0 0.5 0.0
2.5 1.0 0.0
3.5 1.0 0.0
2.5 2.0 0.0
3.5 2.0 0.0
1.0 2.5 0.0
3.0 2.5 0.0
0.5 3.0 0.0
1.5 3.0 0.0
1.0 3.5 0.0
3.0 1.0 0.5
3.0 2.0 0.5
1.0 3.0 0.5
CELLS 24 96
3 3 4 13
3 3 13 5
3 14 13 4
3 6 14 4
3 13 14 7
3 5 13 7
3 8 10 15
3 8 15 11
3 14 6 9
3 14 9 7
3 15 10 12
3 15 12 11
3 4 3 0
3 3 5 0
3 6 4 0
3 1 6 0
3 5 7 1
3 0 5 1
3 10 8 2
3 8 11 2
3 6 1 9
3 1 7 9
3 10 2 12
3 2 11 12
CELL_TYPES 24
5
5
5
5
5
5
5
5
5
5
5
5
5
5
5
5
5
5
5
5
5
5
5
5
CELL_DATA 24
SCALARS label int
LOOKUP_TABLE default
248
248
248
248
248
248
114
114
248
248
114
114
248
248
248
248
248
248
114
114
248
248
114
114
