# vtk DataFile Version 4.1
vtk output
ASCII
DATASET UNSTRUCTURED_GRID
POINTS 12 float
1 1 0.5 1 0.5 1 0.5 1 1 
1.5 1 1 1 1.5 1 1 1 1.5 
4 4 4 4 3.5 4.5 3.5 4 4.5 
4.5 4 4.5 4 4.5 4.5 4 4 5 

CELLS 16 64
3 1 2 5 
3 2 1 0 
3 1 5 3 
3 1 3 0 
3 5 2 4 
3 2 0 4 
3 0 3 4 
3 5 4 3 
3 7 8 11 
3 8 7 6 
3 7 11 9 
3 7 9 6 
3 11 8 10 
3 8 6 10 
3 6 9 10 
3 11 10 9 

CELL_TYPES 16
5
5
5
5
5
5
5
5
5
5
5
5
5
5
5
5

POINT_DATA 12
SCALARS label2 double
LOOKUP_TABLE default
1 1 1 1 1 1 2 2 2 
2 2 2 
