# vtk DataFile Version 4.1
vtk output
ASCII
DATASET UNSTRUCTURED_GRID
POINTS 6 float
1 2.5 0 0.5 3 0 1 3 0.5 
1.5 3 0 1 3.5 0 1 3 -0.5 

CELLS 8 32
3 0 1 2 
3 0 2 3 
3 2 1 4 
3 2 4 3 
3 1 0 5 
3 0 3 5 
3 1 5 4 
3 5 3 4 

CELL_TYPES 8
5
5
5
5
5
5
5
5

CELL_DATA 8
SCALARS label int
LOOKUP_TABLE default
114 114 114 114 114 114 114 114 
