# vtk DataFile Version 4.1
vtk output
ASCII
DATASET UNSTRUCTURED_GRID
POINTS 10 float
3 0.5 0 2.5 1 0 3 1 0.5 
3.5 1 0 3 2 0.5 2.5 2 0 
3.5 2 0 3 2.5 0 3 1 -0.5 
3 2 -0.5 
CELLS 16 64
3 0 1 2 
3 0 2 3 
3 4 2 1 
3 5 4 1 
3 2 4 6 
3 3 2 6 
3 4 5 7 
3 4 7 6 
3 1 0 8 
3 0 3 8 
3 5 1 8 
3 9 5 8 
3 3 6 9 
3 8 3 9 
3 5 9 7 
3 9 6 7 

CELL_TYPES 16
5
5
5
5
5
5
5
5
5
5
5
5
5
5
5
5

CELL_DATA 16
SCALARS label int
LOOKUP_TABLE default
248 248 248 248 248 248 248 248 248 
248 248 248 248 248 248 248 
POINT_DATA 10
SCALARS azerty double
LOOKUP_TABLE default
1 1 1 1 1 1 1 1 1 
1 
