# vtk DataFile Version 4.1
vtk output
ASCII
DATASET UNSTRUCTURED_GRID
POINTS 22 float
1 1 0.5 1 0.5 1 0.5 1 1 
1.5 1 1 1 1.5 1 1 1 1.5 
3 1 -0.5 3 2 -0.5 1 3 -0.5 
3 0.5 0 2.5 1 0 3.5 1 0 
2.5 2 0 3.5 2 0 1 2.5 0 
3 2.5 0 0.5 3 0 1.5 3 0 
1 3.5 0 3 1 0.5 3 2 0.5 
1 3 0.5 
CELLS 32 128
3 1 2 5 
3 2 1 0 
3 1 5 3 
3 1 3 0 
3 5 2 4 
3 2 0 4 
3 0 3 4 
3 5 4 3 
3 9 10 19 
3 9 19 11 
3 20 19 10 
3 12 20 10 
3 19 20 13 
3 11 19 13 
3 14 16 21 
3 14 21 17 
3 20 12 15 
3 20 15 13 
3 21 16 18 
3 21 18 17 
3 10 9 6 
3 9 11 6 
3 12 10 6 
3 7 12 6 
3 11 13 7 
3 6 11 7 
3 16 14 8 
3 14 17 8 
3 12 7 15 
3 7 13 15 
3 16 8 18 
3 8 17 18 

CELL_TYPES 32
5
5
5
5
5
5
5
5
5
5
5
5
5
5
5
5
5
5
5
5
5
5
5
5
5
5
5
5
5
5
5
5

CELL_DATA 32
SCALARS label int
LOOKUP_TABLE default
114 114 114 114 114 114 114 114 248 
248 248 248 248 248 114 114 248 248 
114 114 248 248 248 248 248 248 114 
114 248 248 114 114 
