# vtk DataFile Version 2.0
Writen by Param 3D
ASCII
DATASET UNSTRUCTURED_GRID
POINTS 804 float
1496.0 558.0 61.5
1495.0 559.0 61.5
1496.0 559.0 61.5
1497.0 559.0 61.5
1495.0 560.0 61.5
1496.0 560.0 61.5
1497.0 560.0 61.5
1496.0 557.5 62.0
1495.5 558.0 62.0
1496.5 558.0 62.0
1495.0 558.5 62.0
1497.0 558.5 62.0
1494.5 559.0 62.0
1497.5 559.0 62.0
1494.5 560.0 62.0
1497.5 560.0 62.0
1495.0 560.5 62.0
1496.0 560.5 62.0
1497.0 560.5 62.0
1496.0 558.0 62.5
1495.0 558.5 63.0
1496.0 558.5 63.0
1497.0 558.5 63.0
1494.5 559.0 63.0
1497.5 559.0 63.0
1494.5 560.0 63.0
1497.5 560.0 63.0
1495.0 560.5 63.0
1496.0 560.5 63.0
1497.0 560.5 63.0
1495.0 559.0 63.5
1496.0 559.0 63.5
1497.0 559.0 63.5
1495.0 560.0 63.5
1496.0 560.0 63.5
1497.0 560.0 63.5
513.0 306.0 128.5
514.0 306.0 128.5
510.0 309.0 128.5
513.0 305.5 129.0
514.0 305.5 129.0
512.5 306.0 129.0
514.5 306.0 129.0
513.0 306.5 129.0
514.0 306.5 129.0
510.0 308.5 129.0
509.5 309.0 129.0
510.5 309.0 129.0
510.0 309.5 129.0
514.0 305.0 129.5
515.0 305.0 129.5
515.0 306.0 129.5
512.0 307.0 129.5
513.0 307.0 129.5
514.0 307.0 129.5
515.0 307.0 129.5
510.0 308.0 129.5
511.0 308.0 129.5
512.0 308.0 129.5
513.0 308.0 129.5
509.0 309.0 129.5
511.0 309.0 129.5
509.0 310.0 129.5
510.0 310.0 129.5
514.0 304.5 130.0
515.0 304.5 130.0
513.5 305.0 130.0
515.5 305.0 130.0
513.0 305.5 130.0
512.5 306.0 130.0
515.5 306.0 130.0
512.0 306.5 130.0
511.5 307.0 130.0
515.5 307.0 130.0
510.0 307.5 130.0
511.0 307.5 130.0
514.0 307.5 130.0
515.0 307.5 130.0
509.5 308.0 130.0
513.5 308.0 130.0
509.0 308.5 130.0
512.0 308.5 130.0
513.0 308.5 130.0
508.5 309.0 130.0
511.5 309.0 130.0
511.0 309.5 130.0
508.5 310.0 130.0
510.5 310.0 130.0
509.0 310.5 130.0
510.0 310.5 130.0
515.0 305.0 130.5
512.0 307.0 130.5
515.0 307.0 130.5
510.0 308.0 130.5
511.0 308.0 130.5
512.0 308.0 130.5
513.0 308.0 130.5
509.0 309.0 130.5
510.0 309.0 130.5
511.0 309.0 130.5
509.0 310.0 130.5
510.0 310.0 130.5
514.0 304.5 131.0
513.5 305.0 131.0
514.5 305.0 131.0
513.0 305.5 131.0
515.0 305.5 131.0
512.5 306.0 131.0
515.5 306.0 131.0
515.0 306.5 131.0
512.5 307.0 131.0
514.5 307.0 131.0
513.0 307.5 131.0
514.0 307.5 131.0
514.0 305.0 131.5
513.0 306.0 131.5
514.0 306.0 131.5
515.0 306.0 131.5
513.0 307.0 131.5
514.0 307.0 131.5
514.0 306.0 138.5
515.0 306.0 138.5
516.0 306.0 138.5
514.0 307.0 138.5
515.0 307.0 138.5
516.0 307.0 138.5
517.0 307.0 138.5
510.0 309.0 138.5
511.0 309.0 138.5
510.0 310.0 138.5
514.0 305.5 139.0
515.0 305.5 139.0
516.0 305.5 139.0
513.5 306.0 139.0
516.5 306.0 139.0
517.0 306.5 139.0
513.5 307.0 139.0
517.5 307.0 139.0
514.0 307.5 139.0
515.0 307.5 139.0
516.0 307.5 139.0
517.0 307.5 139.0
510.0 308.5 139.0
511.0 308.5 139.0
509.5 309.0 139.0
511.5 309.0 139.0
511.0 309.5 139.0
509.5 310.0 139.0
510.5 310.0 139.0
510.0 310.5 139.0
515.0 305.0 139.5
513.0 306.0 139.5
517.0 306.0 139.5
513.0 307.0 139.5
511.0 308.0 139.5
512.0 308.0 139.5
513.0 308.0 139.5
509.0 309.0 139.5
512.0 309.0 139.5
509.0 310.0 139.5
511.0 310.0 139.5
510.0 311.0 139.5
515.0 304.5 140.0
514.5 305.0 140.0
515.5 305.0 140.0
513.0 305.5 140.0
514.0 305.5 140.0
516.0 305.5 140.0
517.0 305.5 140.0
512.5 306.0 140.0
517.5 306.0 140.0
512.5 307.0 140.0
517.5 307.0 140.0
511.0 307.5 140.0
512.0 307.5 140.0
514.0 307.5 140.0
515.0 307.5 140.0
516.0 307.5 140.0
517.0 307.5 140.0
510.5 308.0 140.0
513.5 308.0 140.0
509.0 308.5 140.0
510.0 308.5 140.0
513.0 308.5 140.0
508.5 309.0 140.0
512.5 309.0 140.0
512.0 309.5 140.0
508.5 310.0 140.0
511.5 310.0 140.0
509.0 310.5 140.0
511.0 310.5 140.0
509.5 311.0 140.0
510.5 311.0 140.0
510.0 311.5 140.0
515.0 305.0 140.5
513.0 306.0 140.5
515.0 306.0 140.5
516.0 306.0 140.5
517.0 306.0 140.5
513.0 307.0 140.5
516.0 307.0 140.5
517.0 307.0 140.5
511.0 308.0 140.5
512.0 308.0 140.5
513.0 308.0 140.5
509.0 309.0 140.5
510.0 309.0 140.5
511.0 309.0 140.5
512.0 309.0 140.5
509.0 310.0 140.5
510.0 310.0 140.5
511.0 310.0 140.5
510.0 311.0 140.5
514.0 305.5 141.0
513.5 306.0 141.0
514.5 306.0 141.0
515.0 306.5 141.0
513.5 307.0 141.0
515.5 307.0 141.0
514.0 307.5 141.0
515.0 307.5 141.0
514.0 306.0 141.5
514.0 307.0 141.5
515.0 307.0 141.5
1162.0 399.0 160.5
1163.0 399.0 160.5
1164.0 399.0 160.5
1162.0 398.5 161.0
1163.0 398.5 161.0
1164.0 398.5 161.0
1161.5 399.0 161.0
1164.5 399.0 161.0
1162.0 399.5 161.0
1163.0 399.5 161.0
1164.0 399.5 161.0
1162.0 398.0 161.5
1163.0 398.0 161.5
1162.0 400.0 161.5
1163.0 400.0 161.5
1164.0 400.0 161.5
1162.0 397.5 162.0
1163.0 397.5 162.0
1161.5 398.0 162.0
1163.5 398.0 162.0
1164.0 398.5 162.0
1161.5 399.0 162.0
1164.5 399.0 162.0
1161.5 400.0 162.0
1164.5 400.0 162.0
1162.0 400.5 162.0
1163.0 400.5 162.0
1164.0 400.5 162.0
1162.0 398.0 162.5
1163.0 398.0 162.5
1162.0 399.0 162.5
1164.0 399.0 162.5
1162.0 400.0 162.5
1163.0 400.0 162.5
1164.0 400.0 162.5
1163.0 398.5 163.0
1162.5 399.0 163.0
1163.5 399.0 163.0
1163.0 399.5 163.0
1163.0 399.0 163.5
595.0 433.0 554.5
596.0 433.0 554.5
597.0 433.0 554.5
594.0 434.0 554.5
595.0 434.0 554.5
596.0 434.0 554.5
593.0 435.0 554.5
594.0 435.0 554.5
595.0 435.0 554.5
593.0 436.0 554.5
594.0 436.0 554.5
595.0 432.5 555.0
596.0 432.5 555.0
597.0 432.5 555.0
594.5 433.0 555.0
597.5 433.0 555.0
594.0 433.5 555.0
597.0 433.5 555.0
593.5 434.0 555.0
596.5 434.0 555.0
593.0 434.5 555.0
596.0 434.5 555.0
592.5 435.0 555.0
595.5 435.0 555.0
595.0 435.5 555.0
592.5 436.0 555.0
594.5 436.0 555.0
593.0 436.5 555.0
594.0 436.5 555.0
593.0 435.0 555.5
595.0 435.0 555.5
593.0 436.0 555.5
594.0 436.0 555.5
595.0 432.5 556.0
596.0 432.5 556.0
597.0 432.5 556.0
594.5 433.0 556.0
597.5 433.0 556.0
594.0 433.5 556.0
597.0 433.5 556.0
593.5 434.0 556.0
596.5 434.0 556.0
595.0 434.5 556.0
596.0 434.5 556.0
593.5 435.0 556.0
594.5 435.0 556.0
594.0 435.5 556.0
595.0 433.0 556.5
596.0 433.0 556.5
597.0 433.0 556.5
594.0 434.0 556.5
595.0 434.0 556.5
596.0 434.0 556.5
594.0 435.0 556.5
866.0 1214.0 576.5
867.0 1214.0 576.5
865.0 1215.0 576.5
866.0 1215.0 576.5
867.0 1215.0 576.5
868.0 1215.0 576.5
869.0 1215.0 576.5
864.0 1216.0 576.5
865.0 1216.0 576.5
866.0 1216.0 576.5
867.0 1216.0 576.5
863.0 1217.0 576.5
864.0 1217.0 576.5
865.0 1217.0 576.5
866.0 1213.5 577.0
867.0 1213.5 577.0
865.5 1214.0 577.0
867.5 1214.0 577.0
865.0 1214.5 577.0
868.0 1214.5 577.0
869.0 1214.5 577.0
864.5 1215.0 577.0
869.5 1215.0 577.0
864.0 1215.5 577.0
868.0 1215.5 577.0
869.0 1215.5 577.0
863.5 1216.0 577.0
867.5 1216.0 577.0
863.0 1216.5 577.0
866.0 1216.5 577.0
867.0 1216.5 577.0
862.5 1217.0 577.0
865.5 1217.0 577.0
863.0 1217.5 577.0
864.0 1217.5 577.0
865.0 1217.5 577.0
865.0 1214.0 577.5
868.0 1214.0 577.5
864.0 1215.0 577.5
870.0 1215.0 577.5
863.0 1216.0 577.5
868.0 1216.0 577.5
869.0 1216.0 577.5
862.0 1217.0 577.5
862.0 1218.0 577.5
863.0 1218.0 577.5
864.0 1218.0 577.5
865.0 1213.5 578.0
866.0 1213.5 578.0
867.0 1213.5 578.0
868.0 1213.5 578.0
864.5 1214.0 578.0
868.5 1214.0 578.0
864.0 1214.5 578.0
869.0 1214.5 578.0
870.0 1214.5 578.0
863.5 1215.0 578.0
870.5 1215.0 578.0
863.0 1215.5 578.0
870.0 1215.5 578.0
862.5 1216.0 578.0
869.5 1216.0 578.0
862.0 1216.5 578.0
866.0 1216.5 578.0
867.0 1216.5 578.0
868.0 1216.5 578.0
869.0 1216.5 578.0
861.5 1217.0 578.0
865.5 1217.0 578.0
865.0 1217.5 578.0
861.5 1218.0 578.0
864.5 1218.0 578.0
862.0 1218.5 578.0
863.0 1218.5 578.0
864.0 1218.5 578.0
868.0 1214.0 578.5
864.0 1215.0 578.5
870.0 1215.0 578.5
863.0 1216.0 578.5
868.0 1216.0 578.5
862.0 1217.0 578.5
865.0 1217.0 578.5
862.0 1218.0 578.5
863.0 1218.0 578.5
864.0 1218.0 578.5
865.0 1213.5 579.0
866.0 1213.5 579.0
867.0 1213.5 579.0
864.5 1214.0 579.0
867.5 1214.0 579.0
868.0 1214.5 579.0
869.0 1214.5 579.0
864.5 1215.0 579.0
869.5 1215.0 579.0
864.0 1215.5 579.0
868.0 1215.5 579.0
863.5 1216.0 579.0
867.5 1216.0 579.0
868.5 1216.0 579.0
869.5 1216.0 579.0
863.0 1216.5 579.0
865.0 1216.5 579.0
866.0 1216.5 579.0
867.0 1216.5 579.0
869.0 1216.5 579.0
862.5 1217.0 579.0
864.5 1217.0 579.0
863.0 1217.5 579.0
864.0 1217.5 579.0
865.0 1214.0 579.5
866.0 1214.0 579.5
867.0 1214.0 579.5
865.0 1215.0 579.5
866.0 1215.0 579.5
867.0 1215.0 579.5
868.0 1215.0 579.5
869.0 1215.0 579.5
864.0 1216.0 579.5
865.0 1216.0 579.5
866.0 1216.0 579.5
867.0 1216.0 579.5
869.0 1216.0 579.5
863.0 1217.0 579.5
864.0 1217.0 579.5
981.0 750.0 594.5
982.0 750.0 594.5
980.0 751.0 594.5
981.0 751.0 594.5
982.0 751.0 594.5
981.0 749.5 595.0
982.0 749.5 595.0
980.5 750.0 595.0
982.5 750.0 595.0
980.0 750.5 595.0
979.5 751.0 595.0
982.5 751.0 595.0
980.0 751.5 595.0
981.0 751.5 595.0
982.0 751.5 595.0
981.0 749.0 595.5
982.0 749.0 595.5
980.0 750.0 595.5
983.0 750.0 595.5
979.0 751.0 595.5
983.0 751.0 595.5
978.0 752.0 595.5
979.0 752.0 595.5
980.0 752.0 595.5
981.0 748.5 596.0
982.0 748.5 596.0
980.5 749.0 596.0
982.5 749.0 596.0
980.0 749.5 596.0
983.0 749.5 596.0
979.5 750.0 596.0
983.5 750.0 596.0
979.0 750.5 596.0
978.5 751.0 596.0
983.5 751.0 596.0
978.0 751.5 596.0
981.0 751.5 596.0
982.0 751.5 596.0
983.0 751.5 596.0
977.5 752.0 596.0
980.5 752.0 596.0
978.0 752.5 596.0
979.0 752.5 596.0
980.0 752.5 596.0
981.0 752.0 596.5
981.0 748.5 597.0
982.0 748.5 597.0
980.5 749.0 597.0
982.5 749.0 597.0
980.0 749.5 597.0
983.0 749.5 597.0
979.5 750.0 597.0
983.5 750.0 597.0
979.0 750.5 597.0
978.5 751.0 597.0
983.5 751.0 597.0
978.0 751.5 597.0
982.0 751.5 597.0
983.0 751.5 597.0
977.5 752.0 597.0
981.5 752.0 597.0
978.0 752.5 597.0
979.0 752.5 597.0
980.0 752.5 597.0
981.0 752.5 597.0
981.0 749.0 597.5
982.0 749.0 597.5
983.0 750.0 597.5
979.0 751.0 597.5
983.0 751.0 597.5
978.0 752.0 597.5
980.0 749.5 598.0
981.0 749.5 598.0
982.0 749.5 598.0
979.5 750.0 598.0
982.5 750.0 598.0
979.5 751.0 598.0
982.5 751.0 598.0
979.0 751.5 598.0
982.0 751.5 598.0
978.5 752.0 598.0
981.5 752.0 598.0
979.0 752.5 598.0
980.0 752.5 598.0
981.0 752.5 598.0
980.0 750.0 598.5
981.0 750.0 598.5
982.0 750.0 598.5
980.0 751.0 598.5
981.0 751.0 598.5
982.0 751.0 598.5
979.0 752.0 598.5
980.0 752.0 598.5
981.0 752.0 598.5
953.0 1244.0 734.5
954.0 1244.0 734.5
952.0 1245.0 734.5
953.0 1245.0 734.5
[...]
CELL_DATA 1564
SCALARS label int
LOOKUP_TABLE default
1
1
1
1
1
1
1
1
1
1
1
1
1
1
1
1
1
1
1
1
1
1
1
1
1
1
1
1
1
1
1
1
1
1
1
1
1
1
1
1
1
1
1
1
1
1
1
1
1
1
1
1
1
1
1
1
1
1
1
1
1
1
1
1
1
1
1
1
2
2
2
2
2
2
2
2
2
2
2
2
2
2
2
2
2
2
2
2
2
2
2
2
2
2
2
2
2
2
2
2
2
2
2
2
2
2
2
2
2
2
2
2
2
2
2
2
2
2
2
2
2
2
2
2
2
2
2
2
2
2
2
2
2
2
2
2
2
2
2
2
2
2
2
2
2
2
2
2
2
2
2
2
2
2
2
2
2
2
2
2
2
2
2
2
2
2
2
2
2
2
2
2
2
2
2
2
2
2
2
2
2
2
2
2
2
2
2
2
2
2
2
2
2
2
2
2
2
2
2
2
2
2
2
2
2
2
2
2
2
2
2
2
2
2
2
2
2
2
2
2
2
2
2
2
2
2
2
2
2
2
2
2
3
3
3
3
3
3
3
3
3
3
3
3
3
3
3
3
3
3
3
3
3
3
3
3
3
3
3
3
3
3
3
3
3
3
3
3
3
3
3
3
3
3
3
3
3
3
3
3
3
3
3
3
3
3
3
3
3
3
3
3
3
3
3
3
3
3
3
3
3
3
3
3
3
3
3
3
3
3
3
3
3
3
3
3
3
3
3
3
3
3
3
3
3
3
3
3
3
3
3
3
3
3
3
3
3
3
3
3
3
3
3
3
3
3
3
3
3
3
3
3
3
3
3
3
3
3
3
3
3
3
3
3
3
3
3
3
3
3
3
3
3
3
3
3
3
3
3
3
3
3
3
3
3
3
3
3
3
3
3
3
3
3
3
3
3
3
3
3
3
3
3
3
3
3
3
3
3
3
3
3
3
3
3
3
3
3
3
3
3
3
3
3
3
3
3
3
3
3
3
3
3
3
3
3
4
4
4
4
4
4
4
4
4
4
4
4
4
4
4
4
4
4
4
4
4
4
4
4
4
4
4
4
4
4
4
4
4
4
4
4
4
4
4
4
4
4
4
4
4
4
4
4
4
4
4
4
4
4
4
4
4
4
4
4
4
4
4
4
4
4
4
4
4
4
4
4
4
4
4
4
5
5
5
5
5
5
5
5
5
5
5
5
5
5
5
5
5
5
5
5
5
5
5
5
5
5
5
5
5
5
5
5
5
5
5
5
5
5
5
5
5
5
5
5
5
5
5
5
5
5
5
5
5
5
5
5
5
5
5
5
5
5
5
5
5
5
5
5
5
5
5
5
5
5
5
5
5
5
5
5
5
5
5
5
5
5
5
5
5
5
5
5
5
5
5
5
5
5
5
5
5
5
5
5
6
6
6
6
6
6
6
6
6
6
6
6
6
6
6
6
6
6
6
6
6
6
6
6
6
6
6
6
6
6
6
6
6
6
6
6
6
6
6
6
6
6
6
6
6
6
6
6
6
6
6
6
6
6
6
6
6
6
6
6
6
6
6
6
6
6
6
6
6
6
6
6
6
6
6
6
6
6
6
6
6
6
6
6
6
6
6
6
6
6
6
6
6
6
6
6
6
6
6
6
6
6
6
6
6
6
6
6
6
6
6
6
6
6
6
6
6
6
6
6
6
6
6
6
6
6
6
6
6
6
6
6
6
6
6
6
6
6
6
6
6
6
6
6
6
6
6
6
6
6
6
6
6
6
6
6
6
6
6
6
6
6
6
6
6
6
6
6
6
6
6
6
6
6
6
6
6
6
6
6
6
6
6
6
6
6
6
6
6
6
6
6
6
6
6
6
6
6
6
6
6
6
6
6
6
6
6
6
6
6
6
6
6
6
6
6
6
6
6
6
6
6
6
6
6
6
6
6
6
6
6
6
6
6
6
6
6
6
6
6
6
6
6
6
7
7
7
7
7
7
7
7
7
7
7
7
7
7
7
7
7
7
7
7
7
7
7
7
7
7
7
7
7
7
7
7
7
7
7
7
7
7
7
7
7
7
7
7
7
7
7
7
7
7
7
7
7
7
7
7
7
7
7
7
7
7
7
7
7
7
7
7
7
7
7
7
7
7
7
7
7
7
7
7
7
7
7
7
7
7
7
7
7
7
7
7
7
7
7
7
7
7
7
7
7
7
7
7
7
7
7
7
7
7
7
7
7
7
7
7
7
7
7
7
7
7
7
7
7
7
7
7
7
7
7
7
7
7
7
7
7
7
7
7
7
7
7
7
7
7
7
7
7
7
7
7
7
7
7
7
7
7
7
7
7
7
7
7
7
7
7
7
7
7
7
7
7
7
7
7
7
7
7
7
7
7
7
7
9
9
9
9
9
9
9
9
9
9
9
9
8
8
8
8
8
8
8
8
8
8
8
8
8
8
8
8
8
8
8
8
8
8
8
8
8
8
8
8
8
8
8
8
8
8
8
8
8
8
8
8
8
8
8
8
8
8
8
8
8
8
8
8
8
8
8
8
8
8
8
8
8
8
8
8
8
8
8
8
9
9
9
9
9
9
9
9
9
9
9
9
9
9
9
9
9
9
9
9
9
9
9
9
9
9
9
9
9
9
9
9
9
9
9
9
9
9
9
9
9
9
9
9
9
9
9
9
9
9
9
9
9
9
9
9
9
9
9
9
9
9
9
9
9
9
9
9
9
9
9
9
9
9
9
9
9
9
9
9
8
8
8
8
8
8
8
8
8
8
8
8
8
8
8
8
8
8
8
8
8
8
8
8
8
8
8
8
8
8
8
8
8
8
8
8
8
8
8
8
8
8
8
8
8
8
8
8
10
10
10
10
10
10
10
10
10
10
10
10
10
10
10
10
10
10
10
10
10
10
10
10
10
10
10
10
10
10
10
10
10
10
10
10
10
10
10
10
10
10
10
10
10
10
10
10
10
10
10
10
10
10
10
10
10
10
10
10
10
10
10
10
10
10
10
10
10
10
10
10
10
10
10
10
10
10
10
10
10
10
10
10
10
10
10
10
10
10
10
10
10
10
10
10
10
10
10
10
10
10
10
10
10
10
10
10
11
11
11
11
11
11
11
11
11
11
11
11
11
11
11
11
11
11
11
11
11
11
11
11
11
11
11
11
11
11
11
11
11
11
11
11
11
11
11
11
11
11
11
11
11
11
11
11
11
11
11
11
11
11
11
11
11
11
11
11
11
11
11
11
11
11
11
11
11
11
11
11
11
11
11
11
11
11
11
11
11
11
11
11
11
11
11
11
11
11
11
11
11
11
11
11
11
11
11
11
11
11
11
11
11
11
11
11
11
11
11
11
11
11
11
11
11
11
11
11
11
11
11
11
11
11
11
11
11
11
11
11
11
11
11
11
11
11
11
11
11
11
11
11
11
11
11
11
11
11
11
11
11
11
11
11
11
11
11
11
11
11
11
11
11
11
11
11
11
11
11
11
11
11
11
11
11
11
11
11
11
11
11
11
11
11
11
11
11
11
11
11
11
11
11
11
11
11
11
11
11
11
11
11
