# vtk DataFile Version 4.1
vtk output
ASCII
DATASET UNSTRUCTURED_GRID
POINTS 104 float
965.5 985 140 965.5 985 141 966 984.5 141 
966 984.5 140 967 984.5 141 967 984.5 140 
968 984.5 141 968 984.5 140 968.5 985 141 
968.5 985 140 965.5 986 141 965.5 986 140 
967.5 986 140 968 985.5 141 967.5 986 141 
968 985.5 140 964.5 987 140 964.5 987 141 
965 986.5 141 965 986.5 140 967.5 987 141 
967.5 987 140 963.5 988 140 963.5 988 141 
964 987.5 141 964 987.5 140 967 987.5 140 
967 988 140.5 966.5 988 140 967.5 988 141 
962.5 989 141 963 988.5 141 963 989 140.5 
963.5 989 140 967 988.5 140 967.5 989 140 
967.5 989 141 963 989.5 141 963.5 990 141 
964 989.5 140 964 990 140.5 964.5 990 140 
968 989.5 140 968 989.5 141 968.5 990 141 
968.5 990 140 964 990.5 141 965 990.5 140 
965 990.5 141 965.5 991 141 965.5 991 140 
967.5 991 140 968 990.5 141 967.5 991 141 
968 990.5 140 966 991.5 140 966 991.5 141 
967 991.5 141 967 991.5 140 966 985 141.5 
967 985 141.5 968 985 141.5 966 986 141.5 
967 986 141.5 965 987 141.5 966 987 141.5 
967 987 141.5 964 988 141.5 965 988 141.5 
966 988 141.5 967 988 141.5 963 989 141.5 
964 989 141.5 965 989 141.5 966 989 141.5 
967 989 141.5 964 990 141.5 965 990 141.5 
966 990 141.5 967 990 141.5 968 990 141.5 
966 991 141.5 967 991 141.5 966 985 139.5 
967 985 139.5 968 985 139.5 966 986 139.5 
967 986 139.5 965 987 139.5 966 987 139.5 
967 987 139.5 964 988 139.5 965 988 139.5 
966 988 139.5 964 989 139.5 965 989 139.5 
966 989 139.5 967 989 139.5 965 990 139.5 
966 990 139.5 967 990 139.5 968 990 139.5 
966 991 139.5 967 991 139.5 
CELLS 204 816
3 0 1 2 
3 3 0 2 
3 2 4 3 
3 3 4 5 
3 4 6 5 
3 5 6 7 
3 7 6 8 
3 9 7 8 
3 1 0 10 
3 10 0 11 
3 12 13 14 
3 15 13 12 
3 13 15 9 
3 8 13 9 
3 16 17 18 
3 19 16 18 
3 18 11 19 
3 10 11 18 
3 14 20 12 
3 20 21 12 
3 22 23 24 
3 25 22 24 
3 24 16 25 
3 17 16 24 
3 26 27 28 
3 27 26 21 
3 27 21 29 
3 29 21 20 
3 30 31 32 
3 31 33 32 
3 31 23 33 
3 23 22 33 
3 27 34 28 
3 34 27 29 
3 34 29 35 
3 35 29 36 
3 30 32 37 
3 38 39 40 
3 37 39 38 
3 37 33 39 
3 37 32 33 
3 39 41 40 
3 36 42 35 
3 43 42 36 
3 42 43 44 
3 45 42 44 
3 38 40 46 
3 40 41 47 
3 40 47 46 
3 46 47 48 
3 47 49 48 
3 50 49 47 
3 51 52 53 
3 54 52 51 
3 52 54 45 
3 44 52 45 
3 49 50 55 
3 56 49 55 
3 56 55 57 
3 55 58 57 
3 57 58 51 
3 53 57 51 
3 2 1 59 
3 4 2 59 
3 60 4 59 
3 6 4 60 
3 61 6 60 
3 6 61 8 
3 62 59 1 
3 10 62 1 
3 59 62 60 
3 60 62 63 
3 14 13 61 
3 14 61 63 
3 63 61 60 
3 61 13 8 
3 18 17 64 
3 10 18 64 
3 10 64 62 
3 62 64 65 
3 62 65 63 
3 63 65 66 
3 63 66 20 
3 14 63 20 
3 24 23 67 
3 17 24 67 
3 17 67 64 
3 64 67 68 
3 64 68 65 
3 65 68 69 
3 65 69 66 
3 66 69 70 
3 66 70 29 
3 20 66 29 
3 31 30 71 
3 23 31 71 
3 23 71 67 
3 67 71 72 
3 67 72 68 
3 68 72 73 
3 68 73 69 
3 69 73 74 
3 69 74 70 
3 70 74 75 
3 70 75 36 
3 29 70 36 
3 71 30 37 
3 37 38 76 
3 37 76 71 
3 71 76 72 
3 72 76 73 
3 73 76 77 
3 73 77 74 
3 74 77 78 
3 74 78 75 
3 75 78 79 
3 43 36 75 
3 43 75 80 
3 80 75 79 
3 43 80 44 
3 76 38 46 
3 77 76 46 
3 48 77 46 
3 48 49 81 
3 48 81 77 
3 77 81 78 
3 78 81 79 
3 79 81 82 
3 53 52 80 
3 53 80 82 
3 82 80 79 
3 80 52 44 
3 81 49 56 
3 82 81 56 
3 57 82 56 
3 82 57 53 
3 0 3 83 
3 3 5 84 
3 83 3 84 
3 5 7 85 
3 84 5 85 
3 7 9 85 
3 11 0 83 
3 86 11 83 
3 83 84 86 
3 84 87 86 
3 15 12 87 
3 15 87 85 
3 85 87 84 
3 85 9 15 
3 16 19 88 
3 19 11 86 
3 19 86 88 
3 88 86 89 
3 86 87 89 
3 87 90 89 
3 12 21 90 
3 87 12 90 
3 22 25 91 
3 25 16 88 
3 25 88 91 
3 91 88 92 
3 88 89 92 
3 89 93 92 
3 26 28 93 
3 26 93 90 
3 90 93 89 
3 90 21 26 
3 33 22 91 
3 94 33 91 
3 91 92 94 
3 92 95 94 
3 92 93 95 
3 93 96 95 
3 28 34 97 
3 28 97 93 
3 93 97 96 
3 34 35 97 
3 33 94 39 
3 41 39 94 
3 41 94 98 
3 98 94 95 
3 95 96 98 
3 96 99 98 
3 96 97 99 
3 97 100 99 
3 35 42 101 
3 35 101 97 
3 97 101 100 
3 42 45 101 
3 41 98 47 
3 50 47 98 
3 50 98 102 
3 102 98 99 
3 99 100 102 
3 100 103 102 
3 54 51 103 
3 54 103 101 
3 101 103 100 
3 101 45 54 
3 50 102 55 
3 102 103 58 
3 55 102 58 
3 103 51 58 

CELL_TYPES 204
5
5
5
5
5
5
5
5
5
5
5
5
5
5
5
5
5
5
5
5
5
5
5
5
5
5
5
5
5
5
5
5
5
5
5
5
5
5
5
5
5
5
5
5
5
5
5
5
5
5
5
5
5
5
5
5
5
5
5
5
5
5
5
5
5
5
5
5
5
5
5
5
5
5
5
5
5
5
5
5
5
5
5
5
5
5
5
5
5
5
5
5
5
5
5
5
5
5
5
5
5
5
5
5
5
5
5
5
5
5
5
5
5
5
5
5
5
5
5
5
5
5
5
5
5
5
5
5
5
5
5
5
5
5
5
5
5
5
5
5
5
5
5
5
5
5
5
5
5
5
5
5
5
5
5
5
5
5
5
5
5
5
5
5
5
5
5
5
5
5
5
5
5
5
5
5
5
5
5
5
5
5
5
5
5
5
5
5
5
5
5
5
5
5
5
5
5
5
5
5
5
5
5
5

CELL_DATA 204
SCALARS label int
LOOKUP_TABLE default
2 2 2 2 2 2 2 2 2 
2 2 2 2 2 2 2 2 2 
2 2 2 2 2 2 2 2 2 
2 2 2 2 2 2 2 2 2 
2 2 2 2 2 2 2 2 2 
2 2 2 2 2 2 2 2 2 
2 2 2 2 2 2 2 2 2 
2 2 2 2 2 2 2 2 2 
2 2 2 2 2 2 2 2 2 
2 2 2 2 2 2 2 2 2 
2 2 2 2 2 2 2 2 2 
2 2 2 2 2 2 2 2 2 
2 2 2 2 2 2 2 2 2 
2 2 2 2 2 2 2 2 2 
2 2 2 2 2 2 2 2 2 
2 2 2 2 2 2 2 2 2 
2 2 2 2 2 2 2 2 2 
2 2 2 2 2 2 2 2 2 
2 2 2 2 2 2 2 2 2 
2 2 2 2 2 2 2 2 2 
2 2 2 2 2 2 2 2 2 
2 2 2 2 2 2 2 2 2 
2 2 2 2 2 2 
