# vtk DataFile Version 4.1
vtk output
ASCII
DATASET UNSTRUCTURED_GRID
POINTS 72 float
258.5 710 1119 259 709.5 1119 259 710 1118.5 
259.5 710 1119 257.5 711 1119 258 710.5 1119 
258 711 1118.5 259 711 1118.5 259.5 711 1119 
258 711.5 1119 259 711.5 1119 256.5 710 1120 
257 709.5 1120 257 710 1119.5 258 709.5 1120 
258 710 1119.5 259 709.5 1120 260 710 1119.5 
260 709.5 1120 260.5 710 1120 256.5 711 1120 
257 711 1119.5 260 711 1119.5 260.5 711 1120 
257 711.5 1120 258 711.5 1120 259 711.5 1120 
260 711.5 1120 255.5 710 1121 256 709.5 1121 
256 710 1120.5 257 709.5 1121 258 709.5 1121 
259 709.5 1121 259.5 710 1121 260 710 1120.5 
254.5 711 1121 255 710.5 1121 255 711 1120.5 
256 711 1120.5 260 710.5 1121 260.5 711 1121 
255 711.5 1121 256 711.5 1121 256.5 712 1121 
257 712 1120.5 258 711.5 1121 257.5 712 1121 
259 711.5 1121 260 711.5 1121 257 712.5 1121 
255.5 710 1122 256 709.5 1122 257 709.5 1122 
258 709.5 1122 258.5 710 1122 259 710 1121.5 
255 711 1121.5 255.5 711 1122 258.5 711 1122 
259 711 1121.5 260 711 1121.5 256 711.5 1122 
257 712 1121.5 257 711.5 1122 258 711.5 1122 
256 710 1122.5 257 710 1122.5 258 710 1122.5 
256 711 1122.5 257 711 1122.5 258 711 1122.5 

CELLS 140 560
3 0 1 2 
3 1 3 2 
3 4 5 6 
3 5 0 2 
3 5 2 6 
3 6 2 7 
3 3 8 7 
3 2 3 7 
3 4 6 9 
3 6 7 10 
3 9 6 10 
3 7 8 10 
3 11 12 13 
3 12 14 15 
3 13 12 15 
3 0 15 14 
3 0 14 1 
3 1 14 16 
3 17 3 1 
3 17 1 18 
3 18 1 16 
3 18 19 17 
3 20 11 13 
3 21 20 13 
3 4 15 5 
3 4 21 15 
3 21 13 15 
3 15 0 5 
3 22 3 17 
3 8 3 22 
3 19 23 22 
3 17 19 22 
3 20 21 24 
3 21 4 9 
3 21 9 24 
3 24 9 25 
3 25 9 26 
3 9 10 26 
3 8 22 27 
3 8 27 10 
3 10 27 26 
3 22 23 27 
3 28 29 30 
3 11 30 29 
3 11 29 12 
3 12 29 31 
3 31 32 12 
3 12 32 14 
3 32 33 14 
3 14 33 16 
3 34 35 18 
3 34 18 33 
3 33 18 16 
3 18 35 19 
3 36 37 38 
3 37 28 30 
3 37 30 38 
3 38 30 39 
3 30 20 39 
3 11 20 30 
3 34 40 35 
3 35 40 41 
3 35 41 19 
3 19 41 23 
3 36 38 42 
3 38 39 43 
3 42 38 43 
3 44 24 45 
3 43 24 44 
3 43 20 24 
3 43 39 20 
3 45 46 47 
3 45 24 46 
3 24 25 46 
3 46 25 48 
3 25 26 48 
3 48 26 49 
3 26 27 49 
3 49 27 23 
3 41 49 23 
3 44 45 50 
3 45 47 50 
3 28 51 52 
3 29 28 52 
3 52 53 29 
3 29 53 31 
3 53 54 31 
3 31 54 32 
3 55 56 33 
3 55 33 54 
3 54 33 32 
3 33 56 34 
3 37 36 57 
3 57 28 37 
3 57 58 28 
3 58 51 28 
3 59 56 55 
3 60 56 59 
3 40 34 56 
3 40 56 61 
3 61 56 60 
3 40 61 41 
3 57 36 42 
3 58 57 42 
3 58 42 62 
3 62 42 43 
3 63 43 44 
3 63 64 43 
3 64 62 43 
3 47 64 63 
3 47 46 64 
3 46 65 64 
3 60 59 65 
3 60 65 48 
3 48 65 46 
3 61 60 48 
3 49 61 48 
3 61 49 41 
3 63 44 50 
3 63 50 47 
3 52 51 66 
3 53 52 66 
3 67 53 66 
3 54 53 67 
3 68 54 67 
3 54 68 55 
3 69 66 51 
3 58 69 51 
3 66 69 67 
3 67 69 70 
3 67 70 68 
3 68 70 71 
3 68 71 59 
3 55 68 59 
3 69 58 62 
3 70 69 62 
3 64 70 62 
3 71 70 64 
3 65 71 64 
3 71 65 59 

CELL_TYPES 140
5
5
5
5
5
5
5
5
5
5
5
5
5
5
5
5
5
5
5
5
5
5
5
5
5
5
5
5
5
5
5
5
5
5
5
5
5
5
5
5
5
5
5
5
5
5
5
5
5
5
5
5
5
5
5
5
5
5
5
5
5
5
5
5
5
5
5
5
5
5
5
5
5
5
5
5
5
5
5
5
5
5
5
5
5
5
5
5
5
5
5
5
5
5
5
5
5
5
5
5
5
5
5
5
5
5
5
5
5
5
5
5
5
5
5
5
5
5
5
5
5
5
5
5
5
5
5
5
5
5
5
5
5
5
5
5
5
5
5
5

CELL_DATA 140
SCALARS label int
LOOKUP_TABLE default
4 4 4 4 4 4 4 4 4 
4 4 4 4 4 4 4 4 4 
4 4 4 4 4 4 4 4 4 
4 4 4 4 4 4 4 4 4 
4 4 4 4 4 4 4 4 4 
4 4 4 4 4 4 4 4 4 
4 4 4 4 4 4 4 4 4 
4 4 4 4 4 4 4 4 4 
4 4 4 4 4 4 4 4 4 
4 4 4 4 4 4 4 4 4 
4 4 4 4 4 4 4 4 4 
4 4 4 4 4 4 4 4 4 
4 4 4 4 4 4 4 4 4 
4 4 4 4 4 4 4 4 4 
4 4 4 4 4 4 4 4 4 
4 4 4 4 4 
