# vtk DataFile Version 4.1
vtk output
ASCII
DATASET UNSTRUCTURED_GRID
POINTS 78 float
251.5 713 1120 252 712.5 1120 252 713 1119.5 
252.5 713 1120 250.5 714 1120 251 713.5 1120 
251 714 1119.5 252 714 1119.5 252.5 714 1120 
250.5 715 1120 251 715 1119.5 252 715 1119.5 
252.5 715 1120 251 715.5 1120 252 715.5 1120 
250.5 717 1120 251 716.5 1120 251 717 1119.5 
251.5 717 1120 250.5 718 1120 251 718 1119.5 
251.5 718 1120 250.5 719 1120 251 719 1119.5 
251.5 719 1120 251 719.5 1120 250.5 713 1121 
251 712.5 1121 251 713 1120.5 252 712.5 1121 
252.5 713 1121 250.5 714 1121 252.5 714 1121 
250.5 715 1121 252.5 715 1121 251 716 1120.5 
250.5 716 1121 252 716 1120.5 252.5 716 1121 
249.5 717 1121 250 716.5 1121 250 717 1120.5 
252 717 1120.5 252.5 717 1121 249.5 718 1121 
250 718 1120.5 252 718 1120.5 252.5 718 1121 
250 718.5 1121 250.5 719 1121 252 719 1120.5 
252.5 719 1121 251 719.5 1121 252 719.5 1121 
251 713 1121.5 252 713 1121.5 251 714 1121.5 
252 714 1121.5 251 715 1121.5 252 715 1121.5 
251 716 1121.5 252 716 1121.5 250 717 1121.5 
250.5 717 1122 251 716.5 1122 251.5 717 1122 
252 717 1121.5 250 718 1121.5 250.5 718 1122 
251.5 718 1122 252 718 1121.5 250.5 719 1122 
251.5 719 1122 252 719 1121.5 251 719.5 1122 
251 717 1122.5 251 718 1122.5 251 719 1122.5 

CELLS 152 608
3 0 1 2 
3 1 3 2 
3 4 5 6 
3 5 0 2 
3 5 2 6 
3 6 2 7 
3 3 8 7 
3 2 3 7 
3 9 4 6 
3 10 9 6 
3 6 7 10 
3 7 11 10 
3 8 12 11 
3 7 8 11 
3 9 10 13 
3 10 11 14 
3 13 10 14 
3 11 12 14 
3 15 16 17 
3 16 18 17 
3 19 15 17 
3 20 19 17 
3 18 21 20 
3 17 18 20 
3 22 19 20 
3 23 22 20 
3 21 24 23 
3 20 21 23 
3 22 23 25 
3 23 24 25 
3 26 27 28 
3 0 28 27 
3 0 27 1 
3 1 27 29 
3 1 29 30 
3 3 1 30 
3 28 5 4 
3 28 4 26 
3 26 4 31 
3 28 0 5 
3 30 32 3 
3 32 8 3 
3 31 4 33 
3 33 4 9 
3 32 34 8 
3 34 12 8 
3 13 35 36 
3 13 36 9 
3 9 36 33 
3 14 35 13 
3 37 35 14 
3 37 14 12 
3 37 12 38 
3 38 12 34 
3 39 40 41 
3 35 16 15 
3 36 35 15 
3 36 15 41 
3 36 41 40 
3 16 42 18 
3 16 35 42 
3 35 37 42 
3 38 43 42 
3 37 38 42 
3 44 39 41 
3 45 44 41 
3 41 19 45 
3 15 19 41 
3 46 18 42 
3 21 18 46 
3 43 47 46 
3 42 43 46 
3 44 45 48 
3 45 49 48 
3 45 19 49 
3 19 22 49 
3 50 21 46 
3 24 21 50 
3 47 51 50 
3 46 47 50 
3 49 22 25 
3 52 49 25 
3 24 50 53 
3 24 53 25 
3 25 53 52 
3 50 51 53 
3 27 26 54 
3 29 27 54 
3 55 29 54 
3 29 55 30 
3 56 54 26 
3 31 56 26 
3 54 56 55 
3 55 56 57 
3 55 57 32 
3 30 55 32 
3 58 56 31 
3 33 58 31 
3 56 58 57 
3 57 58 59 
3 57 59 34 
3 32 57 34 
3 60 58 33 
3 36 60 33 
3 58 60 59 
3 59 60 61 
3 59 61 38 
3 34 59 38 
3 40 39 62 
3 62 63 64 
3 40 62 64 
3 40 64 60 
3 40 60 36 
3 65 60 64 
3 65 66 60 
3 66 61 60 
3 61 66 43 
3 38 61 43 
3 67 62 39 
3 44 67 39 
3 63 67 68 
3 62 67 63 
3 69 66 65 
3 70 66 69 
3 66 70 47 
3 43 66 47 
3 67 44 48 
3 48 68 67 
3 48 49 68 
3 49 71 68 
3 72 70 69 
3 73 70 72 
3 70 73 51 
3 47 70 51 
3 71 49 52 
3 74 71 52 
3 73 72 74 
3 73 74 53 
3 53 74 52 
3 73 53 51 
3 64 63 75 
3 64 75 65 
3 76 75 63 
3 68 76 63 
3 75 76 69 
3 65 75 69 
3 77 76 68 
3 71 77 68 
3 76 77 72 
3 69 76 72 
3 77 71 74 
3 77 74 72 

CELL_TYPES 152
5
5
5
5
5
5
5
5
5
5
5
5
5
5
5
5
5
5
5
5
5
5
5
5
5
5
5
5
5
5
5
5
5
5
5
5
5
5
5
5
5
5
5
5
5
5
5
5
5
5
5
5
5
5
5
5
5
5
5
5
5
5
5
5
5
5
5
5
5
5
5
5
5
5
5
5
5
5
5
5
5
5
5
5
5
5
5
5
5
5
5
5
5
5
5
5
5
5
5
5
5
5
5
5
5
5
5
5
5
5
5
5
5
5
5
5
5
5
5
5
5
5
5
5
5
5
5
5
5
5
5
5
5
5
5
5
5
5
5
5
5
5
5
5
5
5
5
5
5
5
5
5

CELL_DATA 152
SCALARS label int
LOOKUP_TABLE default
5 5 5 5 5 5 5 5 5 
5 5 5 5 5 5 5 5 5 
5 5 5 5 5 5 5 5 5 
5 5 5 5 5 5 5 5 5 
5 5 5 5 5 5 5 5 5 
5 5 5 5 5 5 5 5 5 
5 5 5 5 5 5 5 5 5 
5 5 5 5 5 5 5 5 5 
5 5 5 5 5 5 5 5 5 
5 5 5 5 5 5 5 5 5 
5 5 5 5 5 5 5 5 5 
5 5 5 5 5 5 5 5 5 
5 5 5 5 5 5 5 5 5 
5 5 5 5 5 5 5 5 5 
5 5 5 5 5 5 5 5 5 
5 5 5 5 5 5 5 5 5 
5 5 5 5 5 5 5 5 
