# vtk DataFile Version 4.1
vtk output
ASCII
DATASET UNSTRUCTURED_GRID
POINTS 118 float
713.5 718 986 714 717.5 986 714 718 985.5 
715 717.5 986 715 718 985.5 716 717.5 986 
716 718 985.5 717 717.5 986 717 718 985.5 
717.5 718 986 710.5 719 986 711 718.5 986 
711 719 985.5 712 718.5 986 712 719 985.5 
713 718.5 986 713 719 985.5 714 719 985.5 
715 719 985.5 716 719 985.5 717 719 985.5 
717.5 719 986 710.5 720 986 711 720 985.5 
712 720 985.5 713 720 985.5 714 719.5 986 
713.5 720 986 715 719.5 986 716 719.5 986 
717 719.5 986 709.5 721 986 710 720.5 986 
710 721 985.5 711 721 985.5 712 720.5 986 
711.5 721 986 713 720.5 986 710 721.5 986 
711 721.5 986 712.5 718 987 713 717.5 987 
713 718 986.5 714 717.5 987 715 717.5 987 
716 717.5 987 717 717.5 987 717.5 718 987 
710.5 719 987 711 718.5 987 712 718.5 987 
717.5 719 987 709.5 720 987 710 719.5 987 
710 720 986.5 714 720 986.5 715 720 986.5 
716 720 986.5 717 720 986.5 717.5 720 987 
709.5 721 987 712 721 986.5 713 720.5 987 
712.5 721 987 714 720.5 987 715 720.5 987 
716 720.5 987 717 720.5 987 710 722 986.5 
709.5 722 987 711 722 986.5 712 721.5 987 
711.5 722 987 710 722.5 987 711 722.5 987 
713 718 987.5 714 718 987.5 714.5 718 988 
715 717.5 988 716 717.5 988 717 717.5 988 
717.5 718 988 711 719 987.5 712 719 987.5 
713 719 987.5 714 719 987.5 714.5 719 988 
717.5 719 988 709.5 720 988 710 719.5 988 
711 719.5 988 711.5 720 988 712 720 987.5 
713 720 987.5 714 720 987.5 715 720 987.5 
715 719.5 988 716 720 987.5 716 719.5 988 
717 720 987.5 717 719.5 988 709.5 721 988 
711.5 721 988 712 721 987.5 710 722 987.5 
710 721.5 988 711 722 987.5 711 721.5 988 
715 718 988.5 716 718 988.5 717 718 988.5 
715 719 988.5 716 719 988.5 717 719 988.5 
710 720 988.5 711 720 988.5 710 721 988.5 
711 721 988.5 
CELLS 232 928
3 0 1 2 
3 1 3 4 
3 2 1 4 
3 3 5 6 
3 4 3 6 
3 5 7 8 
3 6 5 8 
3 7 9 8 
3 10 11 12 
3 11 13 14 
3 12 11 14 
3 13 15 16 
3 14 13 16 
3 15 0 2 
3 15 2 16 
3 16 2 17 
3 2 4 17 
3 4 18 17 
3 4 6 18 
3 6 19 18 
3 6 8 19 
3 8 20 19 
3 9 21 20 
3 8 9 20 
3 22 10 12 
3 23 22 12 
3 12 14 23 
3 14 24 23 
3 14 16 24 
3 16 25 24 
3 26 27 25 
3 26 25 17 
3 17 25 16 
3 17 18 28 
3 26 17 28 
3 18 19 29 
3 28 18 29 
3 19 20 30 
3 29 19 30 
3 20 21 30 
3 31 32 33 
3 32 22 23 
3 32 23 33 
3 33 23 34 
3 35 36 34 
3 35 34 24 
3 24 34 23 
3 24 25 37 
3 35 24 37 
3 25 27 37 
3 31 33 38 
3 33 34 39 
3 38 33 39 
3 34 36 39 
3 40 41 42 
3 0 42 41 
3 0 41 1 
3 1 41 43 
3 43 44 1 
3 1 44 3 
3 44 45 3 
3 3 45 5 
3 45 46 5 
3 5 46 7 
3 7 46 47 
3 9 7 47 
3 10 48 49 
3 11 10 49 
3 49 50 11 
3 11 50 13 
3 42 50 40 
3 42 15 50 
3 15 13 50 
3 42 0 15 
3 47 51 9 
3 51 21 9 
3 52 53 54 
3 53 22 54 
3 53 48 22 
3 48 10 22 
3 26 55 27 
3 28 55 26 
3 56 55 28 
3 29 56 28 
3 57 56 29 
3 30 57 29 
3 58 57 30 
3 58 30 21 
3 58 21 59 
3 59 21 51 
3 54 32 31 
3 54 31 52 
3 52 31 60 
3 54 22 32 
3 35 61 36 
3 61 62 63 
3 61 35 62 
3 35 37 62 
3 27 55 64 
3 27 64 37 
3 37 64 62 
3 55 56 65 
3 64 55 65 
3 56 57 66 
3 65 56 66 
3 57 58 67 
3 66 57 67 
3 58 59 67 
3 38 68 69 
3 38 69 31 
3 31 69 60 
3 39 68 38 
3 70 68 39 
3 70 71 72 
3 39 71 70 
3 39 61 71 
3 39 36 61 
3 61 63 71 
3 69 68 73 
3 68 70 74 
3 73 68 74 
3 70 72 74 
3 41 40 75 
3 43 41 75 
3 76 43 75 
3 76 77 78 
3 76 78 43 
3 43 78 44 
3 78 79 44 
3 44 79 45 
3 79 80 45 
3 45 80 46 
3 46 80 81 
3 47 46 81 
3 49 48 82 
3 50 49 82 
3 83 50 82 
3 40 50 83 
3 40 83 75 
3 75 83 84 
3 75 84 76 
3 76 84 85 
3 77 85 86 
3 76 85 77 
3 81 87 47 
3 87 51 47 
3 52 88 89 
3 53 52 89 
3 48 90 82 
3 48 53 90 
3 53 89 90 
3 91 82 90 
3 91 92 82 
3 92 83 82 
3 83 92 84 
3 84 92 93 
3 84 93 85 
3 85 93 94 
3 86 95 96 
3 86 85 95 
3 85 94 95 
3 96 97 98 
3 95 97 96 
3 98 99 100 
3 97 99 98 
3 100 99 59 
3 100 59 87 
3 87 59 51 
3 88 52 101 
3 101 52 60 
3 102 92 91 
3 103 92 102 
3 63 62 93 
3 63 93 103 
3 103 93 92 
3 94 93 62 
3 64 94 62 
3 95 94 64 
3 65 95 64 
3 97 95 65 
3 66 97 65 
3 99 97 66 
3 67 99 66 
3 99 67 59 
3 104 105 101 
3 104 101 69 
3 69 101 60 
3 105 106 107 
3 104 106 105 
3 103 72 71 
3 102 72 103 
3 102 106 72 
3 102 107 106 
3 103 71 63 
3 104 69 73 
3 106 104 73 
3 74 106 73 
3 106 74 72 
3 78 77 108 
3 79 78 108 
3 109 79 108 
3 80 79 109 
3 110 80 109 
3 80 110 81 
3 111 108 77 
3 86 111 77 
3 108 111 109 
3 109 111 112 
3 109 112 110 
3 110 112 113 
3 110 113 87 
3 81 110 87 
3 89 88 114 
3 90 89 114 
3 115 90 114 
3 90 115 91 
3 111 86 96 
3 112 111 96 
3 98 112 96 
3 113 112 98 
3 100 113 98 
3 113 100 87 
3 116 114 88 
3 101 116 88 
3 114 116 115 
3 115 116 117 
3 115 117 102 
3 91 115 102 
3 116 101 105 
3 117 116 105 
3 107 117 105 
3 117 107 102 

CELL_TYPES 232
5
5
5
5
5
5
5
5
5
5
5
5
5
5
5
5
5
5
5
5
5
5
5
5
5
5
5
5
5
5
5
5
5
5
5
5
5
5
5
5
5
5
5
5
5
5
5
5
5
5
5
5
5
5
5
5
5
5
5
5
5
5
5
5
5
5
5
5
5
5
5
5
5
5
5
5
5
5
5
5
5
5
5
5
5
5
5
5
5
5
5
5
5
5
5
5
5
5
5
5
5
5
5
5
5
5
5
5
5
5
5
5
5
5
5
5
5
5
5
5
5
5
5
5
5
5
5
5
5
5
5
5
5
5
5
5
5
5
5
5
5
5
5
5
5
5
5
5
5
5
5
5
5
5
5
5
5
5
5
5
5
5
5
5
5
5
5
5
5
5
5
5
5
5
5
5
5
5
5
5
5
5
5
5
5
5
5
5
5
5
5
5
5
5
5
5
5
5
5
5
5
5
5
5
5
5
5
5
5
5
5
5
5
5
5
5
5
5
5
5
5
5
5
5
5
5
5
5
5
5
5
5

CELL_DATA 232
SCALARS label int
LOOKUP_TABLE default
3 3 3 3 3 3 3 3 3 
3 3 3 3 3 3 3 3 3 
3 3 3 3 3 3 3 3 3 
3 3 3 3 3 3 3 3 3 
3 3 3 3 3 3 3 3 3 
3 3 3 3 3 3 3 3 3 
3 3 3 3 3 3 3 3 3 
3 3 3 3 3 3 3 3 3 
3 3 3 3 3 3 3 3 3 
3 3 3 3 3 3 3 3 3 
3 3 3 3 3 3 3 3 3 
3 3 3 3 3 3 3 3 3 
3 3 3 3 3 3 3 3 3 
3 3 3 3 3 3 3 3 3 
3 3 3 3 3 3 3 3 3 
3 3 3 3 3 3 3 3 3 
3 3 3 3 3 3 3 3 3 
3 3 3 3 3 3 3 3 3 
3 3 3 3 3 3 3 3 3 
3 3 3 3 3 3 3 3 3 
3 3 3 3 3 3 3 3 3 
3 3 3 3 3 3 3 3 3 
3 3 3 3 3 3 3 3 3 
3 3 3 3 3 3 3 3 3 
3 3 3 3 3 3 3 3 3 
3 3 3 3 3 3 3 
