# vtk DataFile Version 4.1
vtk output
ASCII
DATASET UNSTRUCTURED_GRID
POINTS 124 float
865.5 1214 577 866 1213.5 577 866 1214 576.5 
867 1213.5 577 867 1214 576.5 867.5 1214 577 
864.5 1215 577 865 1214.5 577 865 1215 576.5 
866 1215 576.5 867 1215 576.5 868 1214.5 577 
868 1215 576.5 869 1214.5 577 869 1215 576.5 
869.5 1215 577 863.5 1216 577 864 1215.5 577 
864 1216 576.5 865 1216 576.5 866 1216 576.5 
867 1216 576.5 868 1215.5 577 867.5 1216 577 
869 1215.5 577 862.5 1217 577 863 1216.5 577 
863 1217 576.5 864 1217 576.5 865 1217 576.5 
866 1216.5 577 865.5 1217 577 867 1216.5 577 
863 1217.5 577 864 1217.5 577 865 1217.5 577 
864.5 1214 578 865 1213.5 578 865 1214 577.5 
866 1213.5 578 867 1213.5 578 868 1214 577.5 
868 1213.5 578 868.5 1214 578 863.5 1215 578 
864 1214.5 578 864 1215 577.5 869 1214.5 578 
870 1215 577.5 870 1214.5 578 870.5 1215 578 
862.5 1216 578 863 1215.5 578 863 1216 577.5 
868 1216 577.5 869 1216 577.5 870 1215.5 578 
869.5 1216 578 861.5 1217 578 862 1216.5 578 
862 1217 577.5 866 1216.5 578 865.5 1217 578 
867 1216.5 578 868 1216.5 578 869 1216.5 578 
861.5 1218 578 862 1218 577.5 863 1218 577.5 
864 1218 577.5 865 1217.5 578 864.5 1218 578 
862 1218.5 578 863 1218.5 578 864 1218.5 578 
864.5 1214 579 865 1213.5 579 866 1213.5 579 
867 1213.5 579 867.5 1214 579 868 1214 578.5 
864 1215 578.5 864.5 1215 579 868 1214.5 579 
869 1214.5 579 869.5 1215 579 870 1215 578.5 
863 1216 578.5 863.5 1216 579 864 1215.5 579 
867.5 1216 579 868 1216 578.5 868 1215.5 579 
868.5 1216 579 869.5 1216 579 862 1217 578.5 
862.5 1217 579 863 1216.5 579 864.5 1217 579 
865 1217 578.5 865 1216.5 579 866 1216.5 579 
867 1216.5 579 869 1216.5 579 862 1218 578.5 
863 1218 578.5 863 1217.5 579 864 1218 578.5 
864 1217.5 579 865 1214 579.5 866 1214 579.5 
867 1214 579.5 865 1215 579.5 866 1215 579.5 
867 1215 579.5 868 1215 579.5 869 1215 579.5 
864 1216 579.5 865 1216 579.5 866 1216 579.5 
867 1216 579.5 869 1216 579.5 863 1217 579.5 
864 1217 579.5 
CELLS 244 976
3 0 1 2 
3 1 3 4 
3 2 1 4 
3 3 5 4 
3 6 7 8 
3 7 0 2 
3 7 2 8 
3 8 2 9 
3 2 4 9 
3 4 10 9 
3 5 11 12 
3 5 12 4 
3 4 12 10 
3 11 13 14 
3 12 11 14 
3 13 15 14 
3 16 17 18 
3 17 6 8 
3 17 8 18 
3 18 8 19 
3 8 9 19 
3 9 20 19 
3 9 10 20 
3 10 21 20 
3 22 23 21 
3 22 21 12 
3 12 21 10 
3 12 14 24 
3 22 12 24 
3 14 15 24 
3 25 26 27 
3 26 16 18 
3 26 18 27 
3 27 18 28 
3 18 19 28 
3 19 29 28 
3 30 31 29 
3 30 29 20 
3 20 29 19 
3 20 21 32 
3 30 20 32 
3 21 23 32 
3 25 27 33 
3 27 28 34 
3 33 27 34 
3 28 29 35 
3 34 28 35 
3 29 31 35 
3 36 37 38 
3 0 38 37 
3 0 37 1 
3 1 37 39 
3 39 40 1 
3 1 40 3 
3 41 5 3 
3 41 3 42 
3 42 3 40 
3 42 43 41 
3 44 45 46 
3 38 7 6 
3 36 38 6 
3 36 6 46 
3 36 46 45 
3 38 0 7 
3 41 11 5 
3 43 11 41 
3 43 47 11 
3 47 13 11 
3 48 15 13 
3 48 13 49 
3 49 13 47 
3 49 50 48 
3 51 52 53 
3 46 17 16 
3 44 46 16 
3 44 16 53 
3 44 53 52 
3 46 6 17 
3 22 54 23 
3 24 54 22 
3 55 54 24 
3 55 56 57 
3 24 56 55 
3 24 48 56 
3 24 15 48 
3 48 50 56 
3 58 59 60 
3 53 26 25 
3 51 53 25 
3 51 25 60 
3 51 60 59 
3 53 16 26 
3 31 61 62 
3 30 61 31 
3 61 30 63 
3 30 32 63 
3 23 54 64 
3 23 64 32 
3 32 64 63 
3 54 55 65 
3 64 54 65 
3 55 57 65 
3 66 58 60 
3 67 66 60 
3 33 60 25 
3 33 68 60 
3 68 67 60 
3 34 68 33 
3 69 68 34 
3 69 70 71 
3 69 34 70 
3 34 35 70 
3 70 35 31 
3 62 70 31 
3 66 67 72 
3 67 68 73 
3 72 67 73 
3 68 69 74 
3 73 68 74 
3 69 71 74 
3 36 75 76 
3 37 36 76 
3 76 77 37 
3 37 77 39 
3 77 78 39 
3 39 78 40 
3 79 80 42 
3 79 42 78 
3 78 42 40 
3 42 80 43 
3 45 44 81 
3 81 36 45 
3 81 82 36 
3 82 75 36 
3 79 83 80 
3 80 47 43 
3 80 83 47 
3 83 84 47 
3 85 86 49 
3 85 49 84 
3 84 49 47 
3 49 86 50 
3 52 51 87 
3 87 88 89 
3 52 87 89 
3 52 89 81 
3 52 81 44 
3 81 89 82 
3 90 91 92 
3 92 91 93 
3 86 57 56 
3 86 85 57 
3 85 94 57 
3 86 56 50 
3 59 58 95 
3 95 96 97 
3 59 95 97 
3 59 97 87 
3 59 87 51 
3 87 97 88 
3 98 99 100 
3 62 100 99 
3 62 61 100 
3 61 101 100 
3 101 61 102 
3 61 63 102 
3 91 90 102 
3 91 102 64 
3 64 102 63 
3 93 91 64 
3 93 64 103 
3 103 64 65 
3 103 65 57 
3 94 103 57 
3 104 95 58 
3 66 104 58 
3 96 105 106 
3 96 95 105 
3 95 104 105 
3 106 107 108 
3 105 107 106 
3 99 71 70 
3 98 71 99 
3 98 107 71 
3 98 108 107 
3 99 70 62 
3 104 66 72 
3 105 104 72 
3 73 105 72 
3 107 105 73 
3 74 107 73 
3 107 74 71 
3 76 75 109 
3 77 76 109 
3 110 77 109 
3 78 77 110 
3 111 78 110 
3 78 111 79 
3 112 109 75 
3 82 112 75 
3 109 112 110 
3 110 112 113 
3 110 113 111 
3 111 113 114 
3 83 79 111 
3 83 111 115 
3 115 111 114 
3 84 83 115 
3 116 84 115 
3 84 116 85 
3 89 88 117 
3 82 89 117 
3 82 117 112 
3 112 117 118 
3 112 118 113 
3 113 118 119 
3 113 119 114 
3 114 119 120 
3 90 92 115 
3 90 115 120 
3 120 115 114 
3 92 93 121 
3 92 121 115 
3 115 121 116 
3 116 121 94 
3 85 116 94 
3 97 96 122 
3 88 97 122 
3 88 122 117 
3 117 122 123 
3 98 100 118 
3 98 118 123 
3 123 118 117 
3 119 118 100 
3 101 119 100 
3 120 119 101 
3 102 120 101 
3 120 102 90 
3 121 93 103 
3 121 103 94 
3 122 96 106 
3 123 122 106 
3 108 123 106 
3 123 108 98 

CELL_TYPES 244
5
5
5
5
5
5
5
5
5
5
5
5
5
5
5
5
5
5
5
5
5
5
5
5
5
5
5
5
5
5
5
5
5
5
5
5
5
5
5
5
5
5
5
5
5
5
5
5
5
5
5
5
5
5
5
5
5
5
5
5
5
5
5
5
5
5
5
5
5
5
5
5
5
5
5
5
5
5
5
5
5
5
5
5
5
5
5
5
5
5
5
5
5
5
5
5
5
5
5
5
5
5
5
5
5
5
5
5
5
5
5
5
5
5
5
5
5
5
5
5
5
5
5
5
5
5
5
5
5
5
5
5
5
5
5
5
5
5
5
5
5
5
5
5
5
5
5
5
5
5
5
5
5
5
5
5
5
5
5
5
5
5
5
5
5
5
5
5
5
5
5
5
5
5
5
5
5
5
5
5
5
5
5
5
5
5
5
5
5
5
5
5
5
5
5
5
5
5
5
5
5
5
5
5
5
5
5
5
5
5
5
5
5
5
5
5
5
5
5
5
5
5
5
5
5
5
5
5
5
5
5
5
5
5
5
5
5
5
5
5
5
5
5
5

CELL_DATA 244
SCALARS label int
LOOKUP_TABLE default
6 6 6 6 6 6 6 6 6 
6 6 6 6 6 6 6 6 6 
6 6 6 6 6 6 6 6 6 
6 6 6 6 6 6 6 6 6 
6 6 6 6 6 6 6 6 6 
6 6 6 6 6 6 6 6 6 
6 6 6 6 6 6 6 6 6 
6 6 6 6 6 6 6 6 6 
6 6 6 6 6 6 6 6 6 
6 6 6 6 6 6 6 6 6 
6 6 6 6 6 6 6 6 6 
6 6 6 6 6 6 6 6 6 
6 6 6 6 6 6 6 6 6 
6 6 6 6 6 6 6 6 6 
6 6 6 6 6 6 6 6 6 
6 6 6 6 6 6 6 6 6 
6 6 6 6 6 6 6 6 6 
6 6 6 6 6 6 6 6 6 
6 6 6 6 6 6 6 6 6 
6 6 6 6 6 6 6 6 6 
6 6 6 6 6 6 6 6 6 
6 6 6 6 6 6 6 6 6 
6 6 6 6 6 6 6 6 6 
6 6 6 6 6 6 6 6 6 
6 6 6 6 6 6 6 6 6 
6 6 6 6 6 6 6 6 6 
6 6 6 6 6 6 6 6 6 
6 
