# vtk DataFile Version 4.1
vtk output
ASCII
DATASET UNSTRUCTURED_GRID
POINTS 56 float
1359.5 997 834 1360 996.5 834 1360 997 833.5 
1360.5 997 834 1360 997.5 834 1358.5 996 835 
1358.5 996 836 1359 995.5 836 1359 995.5 835 
1360 995.5 836 1360 995.5 835 1361 995.5 836 
1361 995.5 835 1361.5 996 836 1361.5 996 835 
1357.5 997 835 1357.5 997 836 1358 996.5 836 
1358 996.5 835 1361.5 997 836 1361.5 997 835 
1357.5 998 836 1357.5 998 835 1360.5 998 835 
1361 997.5 836 1360.5 998 836 1361 997.5 835 
1358 999 835.5 1358 998.5 836 1357.5 999 835 
1358.5 999 835 1359 998.5 835 1359 998.5 836 
1360 998.5 836 1360 998.5 835 1358 999.5 835 
1359 996 834.5 1360 996 834.5 1361 996 834.5 
1358 997 834.5 1359 997 834.5 1361 997 834.5 
1358 998 834.5 1359 998 834.5 1360 998 834.5 
1358 999 834.5 1359 996 836.5 1360 996 836.5 
1361 996 836.5 1358 997 836.5 1359 997 836.5 
1360 997 836.5 1361 997 836.5 1358 998 836.5 
1359 998 836.5 1360 998 836.5 
CELLS 108 432
3 0 1 2 
3 1 3 2 
3 0 2 4 
3 2 3 4 
3 5 6 7 
3 8 5 7 
3 7 9 8 
3 8 9 10 
3 9 11 10 
3 10 11 12 
3 12 11 13 
3 14 12 13 
3 15 16 17 
3 18 15 17 
3 17 5 18 
3 6 5 17 
3 13 19 14 
3 19 20 14 
3 16 15 21 
3 21 15 22 
3 23 24 25 
3 26 24 23 
3 24 26 20 
3 19 24 20 
3 27 28 21 
3 27 21 29 
3 29 21 22 
3 30 28 27 
3 30 31 28 
3 31 32 28 
3 32 31 33 
3 31 34 33 
3 33 34 23 
3 25 33 23 
3 27 29 35 
3 27 35 30 
3 5 8 36 
3 8 10 37 
3 36 8 37 
3 10 12 38 
3 37 10 38 
3 12 14 38 
3 15 18 39 
3 18 5 36 
3 18 36 39 
3 39 36 40 
3 0 37 1 
3 0 40 37 
3 40 36 37 
3 1 41 3 
3 1 37 41 
3 37 38 41 
3 14 20 41 
3 38 14 41 
3 22 15 39 
3 42 22 39 
3 39 40 42 
3 40 43 42 
3 4 40 0 
3 4 44 40 
3 44 43 40 
3 44 26 23 
3 4 26 44 
3 4 41 26 
3 4 3 41 
3 41 20 26 
3 29 22 42 
3 45 29 42 
3 31 30 45 
3 31 45 43 
3 43 45 42 
3 43 44 34 
3 31 43 34 
3 44 23 34 
3 29 45 35 
3 45 30 35 
3 7 6 46 
3 9 7 46 
3 47 9 46 
3 11 9 47 
3 48 11 47 
3 11 48 13 
3 17 16 49 
3 6 17 49 
3 6 49 46 
3 46 49 50 
3 46 50 47 
3 47 50 51 
3 47 51 48 
3 48 51 52 
3 48 52 19 
3 13 48 19 
3 53 49 16 
3 21 53 16 
3 49 53 50 
3 50 53 54 
3 50 54 51 
3 51 54 55 
3 25 24 52 
3 25 52 55 
3 55 52 51 
3 52 24 19 
3 53 21 28 
3 54 53 28 
3 32 54 28 
3 55 54 32 
3 33 55 32 
3 55 33 25 

CELL_TYPES 108
5
5
5
5
5
5
5
5
5
5
5
5
5
5
5
5
5
5
5
5
5
5
5
5
5
5
5
5
5
5
5
5
5
5
5
5
5
5
5
5
5
5
5
5
5
5
5
5
5
5
5
5
5
5
5
5
5
5
5
5
5
5
5
5
5
5
5
5
5
5
5
5
5
5
5
5
5
5
5
5
5
5
5
5
5
5
5
5
5
5
5
5
5
5
5
5
5
5
5
5
5
5
5
5
5
5
5
5

CELL_DATA 108
SCALARS label int
LOOKUP_TABLE default
10 10 10 10 10 10 10 10 10 
10 10 10 10 10 10 10 10 10 
10 10 10 10 10 10 10 10 10 
10 10 10 10 10 10 10 10 10 
10 10 10 10 10 10 10 10 10 
10 10 10 10 10 10 10 10 10 
10 10 10 10 10 10 10 10 10 
10 10 10 10 10 10 10 10 10 
10 10 10 10 10 10 10 10 10 
10 10 10 10 10 10 10 10 10 
10 10 10 10 10 10 10 10 10 
10 10 10 10 10 10 10 10 10 

