# vtk DataFile Version 4.1
vtk output
ASCII
DATASET UNSTRUCTURED_GRID
POINTS 40 float
1161.5 399 161 1162 398.5 161 1162 399 160.5 
1163 398.5 161 1163 399 160.5 1164 398.5 161 
1164 399 160.5 1164.5 399 161 1162 399.5 161 
1163 399.5 161 1164 399.5 161 1161.5 398 162 
1162 397.5 162 1162 398 161.5 1163 397.5 162 
1163 398 161.5 1163.5 398 162 1161.5 399 162 
1164 398.5 162 1164.5 399 162 1162 400 161.5 
1161.5 400 162 1163 400 161.5 1164 400 161.5 
1164.5 400 162 1162 400.5 162 1163 400.5 162 
1164 400.5 162 1162 398 162.5 1163 398 162.5 
1162 399 162.5 1163 398.5 163 1162.5 399 163 
1163.5 399 163 1164 399 162.5 1162 400 162.5 
1163 400 162.5 1163 399.5 163 1164 400 162.5 
1163 399 163.5 
CELLS 76 304
3 0 1 2 
3 1 3 4 
3 2 1 4 
3 3 5 6 
3 4 3 6 
3 5 7 6 
3 0 2 8 
3 2 4 9 
3 8 2 9 
3 4 6 10 
3 9 4 10 
3 6 7 10 
3 11 12 13 
3 12 14 15 
3 13 12 15 
3 14 16 15 
3 13 1 0 
3 13 0 11 
3 11 0 17 
3 15 1 13 
3 3 1 15 
3 16 3 15 
3 16 18 3 
3 18 5 3 
3 5 18 19 
3 7 5 19 
3 8 20 21 
3 8 21 0 
3 0 21 17 
3 9 20 8 
3 22 20 9 
3 10 22 9 
3 23 22 10 
3 23 10 7 
3 23 7 24 
3 24 7 19 
3 21 20 25 
3 20 22 26 
3 25 20 26 
3 22 23 27 
3 26 22 27 
3 23 24 27 
3 12 11 28 
3 14 12 28 
3 29 14 28 
3 14 29 16 
3 30 28 11 
3 17 30 11 
3 31 30 32 
3 31 29 30 
3 29 28 30 
3 33 34 18 
3 31 33 18 
3 31 18 16 
3 31 16 29 
3 18 34 19 
3 35 30 17 
3 21 35 17 
3 32 36 37 
3 32 30 36 
3 30 35 36 
3 37 34 33 
3 37 36 34 
3 36 38 34 
3 34 38 24 
3 19 34 24 
3 35 21 25 
3 36 35 25 
3 26 36 25 
3 38 36 26 
3 27 38 26 
3 38 27 24 
3 31 32 39 
3 31 39 33 
3 39 32 37 
3 39 37 33 

CELL_TYPES 76
5
5
5
5
5
5
5
5
5
5
5
5
5
5
5
5
5
5
5
5
5
5
5
5
5
5
5
5
5
5
5
5
5
5
5
5
5
5
5
5
5
5
5
5
5
5
5
5
5
5
5
5
5
5
5
5
5
5
5
5
5
5
5
5
5
5
5
5
5
5
5
5
5
5
5
5

CELL_DATA 76
SCALARS label int
LOOKUP_TABLE default
4 4 4 4 4 4 4 4 4 
4 4 4 4 4 4 4 4 4 
4 4 4 4 4 4 4 4 4 
4 4 4 4 4 4 4 4 4 
4 4 4 4 4 4 4 4 4 
4 4 4 4 4 4 4 4 4 
4 4 4 4 4 4 4 4 4 
4 4 4 4 4 4 4 4 4 
4 4 4 4 
