# vtk DataFile Version 4.1
vtk output
ASCII
DATASET UNSTRUCTURED_GRID
POINTS 84 float
513.5 305 130 513.5 305 131 514 304.5 131 
514 304.5 130 514.5 305 131 515 305 130.5 
515 304.5 130 515.5 305 130 512.5 306 130 
512.5 306 131 513 305.5 131 513 305.5 130 
515 305.5 131 515.5 306 131 515.5 306 130 
512 306.5 130 511.5 307 130 512 307 130.5 
512.5 307 131 514.5 307 131 515 307 130.5 
515 306.5 131 515.5 307 130 510 307.5 130 
509.5 308 130 510 308 130.5 511 307.5 130 
511 308 130.5 512 308 130.5 513 308 130.5 
513 307.5 131 513.5 308 130 514 307.5 130 
514 307.5 131 515 307.5 130 509 308.5 130 
508.5 309 130 509 309 130.5 510 309 130.5 
511 309 130.5 511.5 309 130 512 308.5 130 
513 308.5 130 509 310 130.5 508.5 310 130 
510 310 130.5 510.5 310 130 511 309.5 130 
512.5 306 129 513 305.5 129 513 306 128.5 
514 305.5 129 514 306 128.5 514.5 306 129 
509 310.5 130 510 310.5 130 513 306.5 129 
514 306.5 129 509.5 309 129 510 308.5 129 
510 309 128.5 510.5 309 129 510 309.5 129 
514 305 129.5 515 305 129.5 515 306 129.5 
512 307 129.5 513 307 129.5 514 307 129.5 
515 307 129.5 510 308 129.5 511 308 129.5 
512 308 129.5 513 308 129.5 509 309 129.5 
511 309 129.5 509 310 129.5 510 310 129.5 
514 305 131.5 513 306 131.5 514 306 131.5 
515 306 131.5 513 307 131.5 514 307 131.5 

CELLS 164 656
3 0 1 2 
3 3 0 2 
3 4 5 6 
3 4 6 2 
3 2 6 3 
3 6 5 7 
3 8 9 10 
3 11 8 10 
3 10 0 11 
3 1 0 10 
3 4 12 5 
3 5 12 13 
3 5 13 7 
3 7 13 14 
3 15 16 17 
3 17 8 15 
3 17 18 8 
3 18 9 8 
3 19 20 21 
3 21 20 22 
3 21 22 13 
3 13 22 14 
3 23 24 25 
3 26 23 25 
3 27 26 25 
3 16 26 27 
3 16 27 17 
3 17 27 28 
3 18 29 30 
3 18 17 29 
3 17 28 29 
3 31 30 29 
3 31 32 30 
3 32 33 30 
3 20 19 33 
3 20 33 34 
3 34 33 32 
3 20 34 22 
3 35 36 37 
3 24 35 37 
3 24 37 25 
3 25 37 38 
3 25 38 27 
3 27 38 39 
3 40 41 28 
3 40 28 39 
3 39 28 27 
3 29 28 41 
3 42 29 41 
3 29 42 31 
3 43 37 36 
3 44 43 36 
3 37 43 38 
3 38 43 45 
3 46 47 39 
3 46 39 45 
3 45 39 38 
3 39 47 40 
3 48 49 50 
3 49 51 52 
3 50 49 52 
3 51 53 52 
3 43 44 54 
3 45 43 54 
3 55 45 54 
3 45 55 46 
3 48 50 56 
3 50 52 57 
3 56 50 57 
3 52 53 57 
3 58 59 60 
3 59 61 60 
3 58 60 62 
3 60 61 62 
3 0 3 63 
3 3 6 64 
3 63 3 64 
3 6 7 64 
3 48 8 11 
3 49 48 11 
3 63 11 0 
3 63 51 11 
3 51 49 11 
3 51 65 53 
3 51 63 65 
3 63 64 65 
3 7 14 65 
3 64 7 65 
3 16 15 66 
3 15 67 66 
3 15 48 67 
3 15 8 48 
3 48 56 67 
3 57 67 56 
3 68 67 57 
3 53 68 57 
3 53 65 68 
3 65 69 68 
3 14 22 69 
3 65 14 69 
3 24 23 70 
3 23 26 71 
3 70 23 71 
3 26 16 66 
3 26 66 71 
3 71 66 72 
3 66 67 72 
3 67 73 72 
3 32 31 73 
3 32 73 68 
3 68 73 67 
3 68 69 34 
3 32 68 34 
3 69 22 34 
3 36 35 74 
3 70 59 58 
3 24 70 58 
3 24 58 74 
3 24 74 35 
3 59 75 61 
3 59 70 75 
3 70 71 75 
3 41 40 75 
3 41 75 72 
3 72 75 71 
3 72 73 42 
3 41 72 42 
3 73 31 42 
3 44 36 74 
3 76 44 74 
3 62 74 58 
3 62 77 74 
3 77 76 74 
3 77 47 46 
3 62 47 77 
3 62 75 47 
3 62 61 75 
3 75 40 47 
3 44 76 54 
3 76 77 55 
3 54 76 55 
3 77 46 55 
3 2 1 78 
3 2 78 4 
3 10 9 79 
3 1 10 79 
3 1 79 78 
3 78 79 80 
3 12 4 78 
3 12 78 81 
3 81 78 80 
3 12 81 13 
3 82 79 9 
3 18 82 9 
3 79 82 80 
3 80 82 83 
3 19 21 81 
3 19 81 83 
3 83 81 80 
3 81 21 13 
3 82 18 30 
3 83 82 30 
3 33 83 30 
3 83 33 19 

CELL_TYPES 164
5
5
5
5
5
5
5
5
5
5
5
5
5
5
5
5
5
5
5
5
5
5
5
5
5
5
5
5
5
5
5
5
5
5
5
5
5
5
5
5
5
5
5
5
5
5
5
5
5
5
5
5
5
5
5
5
5
5
5
5
5
5
5
5
5
5
5
5
5
5
5
5
5
5
5
5
5
5
5
5
5
5
5
5
5
5
5
5
5
5
5
5
5
5
5
5
5
5
5
5
5
5
5
5
5
5
5
5
5
5
5
5
5
5
5
5
5
5
5
5
5
5
5
5
5
5
5
5
5
5
5
5
5
5
5
5
5
5
5
5
5
5
5
5
5
5
5
5
5
5
5
5
5
5
5
5
5
5
5
5
5
5
5
5

CELL_DATA 164
SCALARS label int
LOOKUP_TABLE default
2 2 2 2 2 2 2 2 2 
2 2 2 2 2 2 2 2 2 
2 2 2 2 2 2 2 2 2 
2 2 2 2 2 2 2 2 2 
2 2 2 2 2 2 2 2 2 
2 2 2 2 2 2 2 2 2 
2 2 2 2 2 2 2 2 2 
2 2 2 2 2 2 2 2 2 
2 2 2 2 2 2 2 2 2 
2 2 2 2 2 2 2 2 2 
2 2 2 2 2 2 2 2 2 
2 2 2 2 2 2 2 2 2 
2 2 2 2 2 2 2 2 2 
2 2 2 2 2 2 2 2 2 
2 2 2 2 2 2 2 2 2 
2 2 2 2 2 2 2 2 2 
2 2 2 2 2 2 2 2 2 
2 2 2 2 2 2 2 2 2 
2 2 
