# vtk DataFile Version 4.1
vtk output
ASCII
DATASET UNSTRUCTURED_GRID
POINTS 104 float
513.5 306 139 514 305.5 139 514 306 138.5 
515 305.5 139 515 306 138.5 516 305.5 139 
516 306 138.5 516.5 306 139 513.5 307 139 
514 307 138.5 515 307 138.5 516 307 138.5 
517 306.5 139 517 307 138.5 517.5 307 139 
514 307.5 139 515 307.5 139 516 307.5 139 
517 307.5 139 509.5 309 139 510 308.5 139 
510 309 138.5 511 308.5 139 511 309 138.5 
511.5 309 139 509.5 310 139 510 310 138.5 
511 309.5 139 510.5 310 139 510 310.5 139 
514.5 305 140 515 304.5 140 515 305 139.5 
515.5 305 140 512.5 306 140 513 305.5 140 
513 306 139.5 514 305.5 140 516 305.5 140 
517 306 139.5 517 305.5 140 517.5 306 140 
512.5 307 140 513 307 139.5 517.5 307 140 
510.5 308 140 511 307.5 140 511 308 139.5 
512 307.5 140 512 308 139.5 513 308 139.5 
514 307.5 140 513.5 308 140 515 307.5 140 
516 307.5 140 517 307.5 140 508.5 309 140 
509 308.5 140 509 309 139.5 510 308.5 140 
512 309 139.5 513 308.5 140 512.5 309 140 
508.5 310 140 509 310 139.5 511 310 139.5 
512 309.5 140 511.5 310 140 509 310.5 140 
509.5 311 140 510 311 139.5 511 310.5 140 
510.5 311 140 510 311.5 140 515 305 140.5 
513 306 140.5 513.5 306 141 514 305.5 141 
515 306 140.5 514.5 306 141 516 306 140.5 
517 306 140.5 513 307 140.5 513.5 307 141 
515 306.5 141 515.5 307 141 516 307 140.5 
517 307 140.5 511 308 140.5 512 308 140.5 
513 308 140.5 514 307.5 141 515 307.5 141 
509 309 140.5 510 309 140.5 511 309 140.5 
512 309 140.5 509 310 140.5 510 310 140.5 
511 310 140.5 510 311 140.5 514 306 141.5 
514 307 141.5 515 307 141.5 
CELLS 204 816
3 0 1 2 
3 1 3 4 
3 2 1 4 
3 3 5 6 
3 4 3 6 
3 5 7 6 
3 8 0 2 
3 9 8 2 
3 2 4 9 
3 4 10 9 
3 4 6 10 
3 6 11 10 
3 7 12 13 
3 7 13 6 
3 6 13 11 
3 12 14 13 
3 8 9 15 
3 9 10 16 
3 15 9 16 
3 10 11 17 
3 16 10 17 
3 11 13 18 
3 17 11 18 
3 13 14 18 
3 19 20 21 
3 20 22 23 
3 21 20 23 
3 22 24 23 
3 25 19 21 
3 26 25 21 
3 27 28 26 
3 27 26 23 
3 23 26 21 
3 23 24 27 
3 25 26 29 
3 26 28 29 
3 30 31 32 
3 31 33 32 
3 34 35 36 
3 0 36 35 
3 0 35 1 
3 1 35 37 
3 32 37 30 
3 32 3 37 
3 3 1 37 
3 33 3 32 
3 33 38 3 
3 38 5 3 
3 39 7 5 
3 39 5 40 
3 40 5 38 
3 40 41 39 
3 42 34 36 
3 43 42 36 
3 36 8 43 
3 0 8 36 
3 39 12 7 
3 12 39 41 
3 12 41 14 
3 14 41 44 
3 45 46 47 
3 46 48 49 
3 47 46 49 
3 48 42 43 
3 48 43 49 
3 49 43 50 
3 8 50 43 
3 8 51 50 
3 8 15 51 
3 52 50 51 
3 51 15 53 
3 15 16 53 
3 53 16 54 
3 16 17 54 
3 54 17 55 
3 17 18 55 
3 55 18 14 
3 44 55 14 
3 56 57 58 
3 19 58 57 
3 19 57 20 
3 20 57 59 
3 47 59 45 
3 47 22 59 
3 22 20 59 
3 22 60 24 
3 22 47 60 
3 47 49 60 
3 61 62 60 
3 61 60 50 
3 50 60 49 
3 50 52 61 
3 63 56 58 
3 64 63 58 
3 58 25 64 
3 19 25 58 
3 27 65 28 
3 65 66 67 
3 27 66 65 
3 27 60 66 
3 27 24 60 
3 60 62 66 
3 63 64 68 
3 69 29 70 
3 68 29 69 
3 68 25 29 
3 68 64 25 
3 70 71 72 
3 29 71 70 
3 29 65 71 
3 29 28 65 
3 65 67 71 
3 69 70 73 
3 70 72 73 
3 31 30 74 
3 31 74 33 
3 35 34 75 
3 75 76 77 
3 75 77 35 
3 35 77 37 
3 30 37 77 
3 30 77 78 
3 30 78 74 
3 78 77 79 
3 38 33 74 
3 38 74 80 
3 80 74 78 
3 40 38 80 
3 81 40 80 
3 40 81 41 
3 82 75 34 
3 42 82 34 
3 76 82 83 
3 75 82 76 
3 79 84 78 
3 85 78 84 
3 85 86 78 
3 86 80 78 
3 80 86 81 
3 81 86 87 
3 81 87 44 
3 41 81 44 
3 46 45 88 
3 48 46 88 
3 89 48 88 
3 42 48 89 
3 42 89 82 
3 82 89 90 
3 83 51 91 
3 83 90 51 
3 83 82 90 
3 90 52 51 
3 91 51 92 
3 51 53 92 
3 86 85 92 
3 86 92 54 
3 54 92 53 
3 87 86 54 
3 55 87 54 
3 87 55 44 
3 57 56 93 
3 59 57 93 
3 94 59 93 
3 45 59 94 
3 45 94 88 
3 88 94 95 
3 88 95 89 
3 89 95 96 
3 62 61 90 
3 62 90 96 
3 96 90 89 
3 90 61 52 
3 97 93 56 
3 63 97 56 
3 93 97 94 
3 94 97 98 
3 94 98 95 
3 95 98 99 
3 67 66 96 
3 67 96 99 
3 99 96 95 
3 96 66 62 
3 97 63 68 
3 68 69 100 
3 68 100 97 
3 97 100 98 
3 72 71 99 
3 72 99 100 
3 100 99 98 
3 99 71 67 
3 100 69 73 
3 100 73 72 
3 77 76 101 
3 77 101 79 
3 102 101 76 
3 83 102 76 
3 84 79 101 
3 84 101 103 
3 103 101 102 
3 84 103 85 
3 102 83 91 
3 103 102 91 
3 92 103 91 
3 103 92 85 

CELL_TYPES 204
5
5
5
5
5
5
5
5
5
5
5
5
5
5
5
5
5
5
5
5
5
5
5
5
5
5
5
5
5
5
5
5
5
5
5
5
5
5
5
5
5
5
5
5
5
5
5
5
5
5
5
5
5
5
5
5
5
5
5
5
5
5
5
5
5
5
5
5
5
5
5
5
5
5
5
5
5
5
5
5
5
5
5
5
5
5
5
5
5
5
5
5
5
5
5
5
5
5
5
5
5
5
5
5
5
5
5
5
5
5
5
5
5
5
5
5
5
5
5
5
5
5
5
5
5
5
5
5
5
5
5
5
5
5
5
5
5
5
5
5
5
5
5
5
5
5
5
5
5
5
5
5
5
5
5
5
5
5
5
5
5
5
5
5
5
5
5
5
5
5
5
5
5
5
5
5
5
5
5
5
5
5
5
5
5
5
5
5
5
5
5
5
5
5
5
5
5
5
5
5
5
5
5
5

CELL_DATA 204
SCALARS label int
LOOKUP_TABLE default
3 3 3 3 3 3 3 3 3 
3 3 3 3 3 3 3 3 3 
3 3 3 3 3 3 3 3 3 
3 3 3 3 3 3 3 3 3 
3 3 3 3 3 3 3 3 3 
3 3 3 3 3 3 3 3 3 
3 3 3 3 3 3 3 3 3 
3 3 3 3 3 3 3 3 3 
3 3 3 3 3 3 3 3 3 
3 3 3 3 3 3 3 3 3 
3 3 3 3 3 3 3 3 3 
3 3 3 3 3 3 3 3 3 
3 3 3 3 3 3 3 3 3 
3 3 3 3 3 3 3 3 3 
3 3 3 3 3 3 3 3 3 
3 3 3 3 3 3 3 3 3 
3 3 3 3 3 3 3 3 3 
3 3 3 3 3 3 3 3 3 
3 3 3 3 3 3 3 3 3 
3 3 3 3 3 3 3 3 3 
3 3 3 3 3 3 3 3 3 
3 3 3 3 3 3 3 3 3 
3 3 3 3 3 3 
