# vtk DataFile Version 4.1
vtk output
ASCII
DATASET UNSTRUCTURED_GRID
POINTS 54 float
594.5 433 555 595 432.5 555 595 433 554.5 
596 432.5 555 596 433 554.5 597 432.5 555 
597 433 554.5 597.5 433 555 593.5 434 555 
594 433.5 555 594 434 554.5 595 434 554.5 
596 434 554.5 597 433.5 555 596.5 434 555 
592.5 435 555 593 434.5 555 593 435 554.5 
594 435 554.5 595 435 554.5 596 434.5 555 
595.5 435 555 592.5 436 555 593 436 554.5 
594 436 554.5 595 435.5 555 594.5 436 555 
593 436.5 555 594 436.5 555 594.5 433 556 
595 432.5 556 596 432.5 556 597 432.5 556 
597.5 433 556 593.5 434 556 594 433.5 556 
597 433.5 556 596.5 434 556 593 435 555.5 
593.5 435 556 594.5 435 556 595 435 555.5 
595 434.5 556 596 434.5 556 593 436 555.5 
594 436 555.5 594 435.5 556 595 433 556.5 
596 433 556.5 597 433 556.5 594 434 556.5 
595 434 556.5 596 434 556.5 594 435 556.5 

CELLS 104 416
3 0 1 2 
3 1 3 4 
3 2 1 4 
3 3 5 6 
3 4 3 6 
3 5 7 6 
3 8 9 10 
3 9 0 2 
3 9 2 10 
3 10 2 11 
3 2 4 11 
3 4 12 11 
3 13 14 12 
3 13 12 6 
3 6 12 4 
3 6 7 13 
3 15 16 17 
3 16 8 10 
3 16 10 17 
3 17 10 18 
3 10 11 18 
3 11 19 18 
3 20 21 19 
3 20 19 12 
3 12 19 11 
3 12 14 20 
3 22 15 17 
3 23 22 17 
3 17 18 23 
3 18 24 23 
3 25 26 24 
3 25 24 19 
3 19 24 18 
3 19 21 25 
3 22 23 27 
3 23 24 28 
3 27 23 28 
3 24 26 28 
3 0 29 30 
3 1 0 30 
3 30 31 1 
3 1 31 3 
3 31 32 3 
3 3 32 5 
3 5 32 33 
3 7 5 33 
3 8 34 35 
3 9 8 35 
3 35 0 9 
3 29 0 35 
3 14 36 37 
3 13 36 14 
3 36 13 7 
3 33 36 7 
3 16 15 38 
3 38 8 16 
3 38 39 8 
3 39 34 8 
3 40 41 42 
3 21 42 41 
3 21 20 42 
3 20 43 42 
3 43 20 14 
3 37 43 14 
3 44 38 15 
3 22 44 15 
3 39 45 46 
3 39 38 45 
3 38 44 45 
3 41 26 25 
3 40 26 41 
3 40 45 26 
3 40 46 45 
3 41 25 21 
3 44 22 27 
3 45 44 27 
3 28 45 27 
3 45 28 26 
3 30 29 47 
3 31 30 47 
3 48 31 47 
3 32 31 48 
3 49 32 48 
3 32 49 33 
3 35 34 50 
3 29 35 50 
3 29 50 47 
3 47 50 51 
3 47 51 48 
3 48 51 52 
3 37 36 49 
3 37 49 52 
3 52 49 48 
3 49 36 33 
3 53 50 34 
3 39 53 34 
3 40 42 51 
3 40 51 53 
3 53 51 50 
3 52 51 42 
3 43 52 42 
3 52 43 37 
3 53 39 46 
3 53 46 40 

CELL_TYPES 104
5
5
5
5
5
5
5
5
5
5
5
5
5
5
5
5
5
5
5
5
5
5
5
5
5
5
5
5
5
5
5
5
5
5
5
5
5
5
5
5
5
5
5
5
5
5
5
5
5
5
5
5
5
5
5
5
5
5
5
5
5
5
5
5
5
5
5
5
5
5
5
5
5
5
5
5
5
5
5
5
5
5
5
5
5
5
5
5
5
5
5
5
5
5
5
5
5
5
5
5
5
5
5
5

CELL_DATA 104
SCALARS label int
LOOKUP_TABLE default
5 5 5 5 5 5 5 5 5 
5 5 5 5 5 5 5 5 5 
5 5 5 5 5 5 5 5 5 
5 5 5 5 5 5 5 5 5 
5 5 5 5 5 5 5 5 5 
5 5 5 5 5 5 5 5 5 
5 5 5 5 5 5 5 5 5 
5 5 5 5 5 5 5 5 5 
5 5 5 5 5 5 5 5 5 
5 5 5 5 5 5 5 5 5 
5 5 5 5 5 5 5 5 5 
5 5 5 5 5 
