# vtk DataFile Version 4.1
vtk output
ASCII
DATASET UNSTRUCTURED_GRID
POINTS 60 float
952.5 1244 735 953 1243.5 735 953 1244 734.5 
954 1243.5 735 954 1244 734.5 954.5 1244 735 
951.5 1245 735 952 1244.5 735 952 1245 734.5 
953 1245 734.5 954 1245 734.5 955 1244.5 735 
955 1245 734.5 955.5 1245 735 950.5 1246 735 
951 1245.5 735 951 1246 734.5 952 1246 734.5 
953 1246 734.5 954 1245.5 735 953.5 1246 735 
955 1245.5 735 949.5 1247 735 950 1246.5 735 
950 1247 734.5 951 1247 734.5 952 1247 734.5 
953 1246.5 735 952.5 1247 735 949.5 1248 735 
950 1248 734.5 951 1247.5 735 950.5 1248 735 
952 1247.5 735 950 1248.5 735 952 1244.5 736 
951.5 1245 736 952 1245 736.5 953 1244.5 736 
953 1245 736.5 954 1244.5 736 954 1245 736.5 
955 1244.5 736 955 1245 736.5 955.5 1245 736 
952 1246 736.5 951.5 1246 736 953 1246 736.5 
953.5 1246 736 954 1245.5 736 955 1245.5 736 
952 1246.5 736 953 1246.5 736 953 1244 735.5 
954 1244 735.5 951 1246 735.5 950 1247 735.5 
951 1247 735.5 952 1247 735.5 950 1248 735.5 

CELLS 116 464
3 0 1 2 
3 1 3 4 
3 2 1 4 
3 3 5 4 
3 6 7 8 
3 7 0 2 
3 7 2 8 
3 8 2 9 
3 2 4 9 
3 4 10 9 
3 5 11 12 
3 5 12 4 
3 4 12 10 
3 11 13 12 
3 14 15 16 
3 15 6 8 
3 15 8 16 
3 16 8 17 
3 8 9 17 
3 9 18 17 
3 19 20 18 
3 19 18 10 
3 10 18 9 
3 10 12 21 
3 19 10 21 
3 12 13 21 
3 22 23 24 
3 23 14 16 
3 23 16 24 
3 24 16 25 
3 16 17 25 
3 17 26 25 
3 27 28 26 
3 27 26 18 
3 18 26 17 
3 18 20 27 
3 29 22 24 
3 30 29 24 
3 31 32 30 
3 31 30 25 
3 25 30 24 
3 25 26 33 
3 31 25 33 
3 26 28 33 
3 29 30 34 
3 30 32 34 
3 35 36 37 
3 38 35 37 
3 39 38 37 
3 40 38 39 
3 41 40 39 
3 42 40 41 
3 43 42 41 
3 42 43 44 
3 45 37 36 
3 46 45 36 
3 37 45 39 
3 39 45 47 
3 48 49 41 
3 48 41 47 
3 47 41 39 
3 43 41 49 
3 50 43 49 
3 43 50 44 
3 45 46 51 
3 47 45 51 
3 52 47 51 
3 47 52 48 
3 1 0 53 
3 3 1 53 
3 54 3 53 
3 3 54 5 
3 6 36 35 
3 7 6 35 
3 0 38 53 
3 0 7 38 
3 7 35 38 
3 53 40 54 
3 38 40 53 
3 54 11 5 
3 54 40 11 
3 40 42 11 
3 11 42 44 
3 13 11 44 
3 15 14 55 
3 55 6 15 
3 55 46 6 
3 46 36 6 
3 20 49 48 
3 19 49 20 
3 49 19 50 
3 19 21 50 
3 50 21 13 
3 44 50 13 
3 23 22 56 
3 14 23 56 
3 14 56 55 
3 55 56 57 
3 46 58 51 
3 46 55 58 
3 55 57 58 
3 28 51 58 
3 28 27 51 
3 27 52 51 
3 52 27 20 
3 48 52 20 
3 59 56 22 
3 29 59 22 
3 32 31 57 
3 32 57 59 
3 59 57 56 
3 58 57 31 
3 33 58 31 
3 58 33 28 
3 59 29 34 
3 59 34 32 

CELL_TYPES 116
5
5
5
5
5
5
5
5
5
5
5
5
5
5
5
5
5
5
5
5
5
5
5
5
5
5
5
5
5
5
5
5
5
5
5
5
5
5
5
5
5
5
5
5
5
5
5
5
5
5
5
5
5
5
5
5
5
5
5
5
5
5
5
5
5
5
5
5
5
5
5
5
5
5
5
5
5
5
5
5
5
5
5
5
5
5
5
5
5
5
5
5
5
5
5
5
5
5
5
5
5
5
5
5
5
5
5
5
5
5
5
5
5
5
5
5

CELL_DATA 116
SCALARS label int
LOOKUP_TABLE default
8 8 8 8 8 8 8 8 8 
8 8 8 8 8 8 8 8 8 
8 8 8 8 8 8 8 8 8 
8 8 8 8 8 8 8 8 8 
8 8 8 8 8 8 8 8 8 
8 8 8 8 8 8 8 8 8 
8 8 8 8 8 8 8 8 8 
8 8 8 8 8 8 8 8 8 
8 8 8 8 8 8 8 8 8 
8 8 8 8 8 8 8 8 8 
8 8 8 8 8 8 8 8 8 
8 8 8 8 8 8 8 8 8 
8 8 8 8 8 8 8 8 
