# vtk DataFile Version 4.1
vtk output
ASCII
DATASET UNSTRUCTURED_GRID
POINTS 94 float
980.5 750 595 981 749.5 595 981 750 594.5 
982 749.5 595 982 750 594.5 982.5 750 595 
979.5 751 595 980 750.5 595 980 751 594.5 
981 751 594.5 982 751 594.5 982.5 751 595 
980 751.5 595 981 751.5 595 982 751.5 595 
980.5 749 596 981 748.5 596 981 749 595.5 
982 748.5 596 982 749 595.5 982.5 749 596 
979.5 750 596 980 749.5 596 980 750 595.5 
983 750 595.5 983 749.5 596 983.5 750 596 
978.5 751 596 979 750.5 596 979 751 595.5 
983 751 595.5 983.5 751 596 977.5 752 596 
978 751.5 596 978 752 595.5 979 752 595.5 
980 752 595.5 981 751.5 596 980.5 752 596 
982 751.5 596 983 751.5 596 978 752.5 596 
979 752.5 596 980 752.5 596 981 748.5 597 
980.5 749 597 981 749 597.5 982 748.5 597 
982 749 597.5 982.5 749 597 979.5 750 597 
979.5 750 598 980 749.5 598 980 749.5 597 
981 749.5 598 982 749.5 598 982.5 750 598 
983 750 597.5 983 749.5 597 983.5 750 597 
979 750.5 597 978.5 751 597 979 751 597.5 
979.5 751 598 982.5 751 598 983 751 597.5 
983.5 751 597 978 751.5 597 977.5 752 597 
978 752 597.5 978.5 752 598 979 751.5 598 
981.5 752 597 982 751.5 598 981.5 752 598 
982 751.5 597 983 751.5 597 978 752.5 597 
979 752.5 598 979 752.5 597 980 752.5 598 
980 752.5 597 981 752.5 598 981 752.5 597 
981 752 596.5 980 750 598.5 981 750 598.5 
982 750 598.5 980 751 598.5 981 751 598.5 
982 751 598.5 979 752 598.5 980 752 598.5 
981 752 598.5 
CELLS 184 736
3 0 1 2 
3 1 3 4 
3 2 1 4 
3 3 5 4 
3 6 7 8 
3 7 0 2 
3 7 2 8 
3 8 2 9 
3 2 4 9 
3 4 10 9 
3 5 11 10 
3 4 5 10 
3 6 8 12 
3 8 9 13 
3 12 8 13 
3 9 10 14 
3 13 9 14 
3 10 11 14 
3 15 16 17 
3 16 18 19 
3 17 16 19 
3 18 20 19 
3 21 22 23 
3 17 1 0 
3 15 17 0 
3 15 0 23 
3 15 23 22 
3 19 1 17 
3 3 1 19 
3 3 24 5 
3 19 24 3 
3 19 25 24 
3 19 20 25 
3 25 26 24 
3 27 28 29 
3 23 7 6 
3 21 23 6 
3 21 6 29 
3 21 29 28 
3 23 0 7 
3 30 5 24 
3 11 5 30 
3 26 31 30 
3 24 26 30 
3 32 33 34 
3 33 27 29 
3 33 29 34 
3 34 29 35 
3 12 29 6 
3 12 36 29 
3 36 35 29 
3 36 37 38 
3 36 12 37 
3 12 13 37 
3 37 13 39 
3 13 14 39 
3 11 30 40 
3 11 40 14 
3 14 40 39 
3 30 31 40 
3 32 34 41 
3 34 35 42 
3 41 34 42 
3 35 36 43 
3 42 35 43 
3 36 38 43 
3 44 45 46 
3 47 44 46 
3 48 47 46 
3 47 48 49 
3 50 51 52 
3 53 50 52 
3 45 54 46 
3 45 53 54 
3 53 52 54 
3 46 55 48 
3 54 55 46 
3 56 57 58 
3 55 56 58 
3 55 58 49 
3 55 49 48 
3 58 57 59 
3 60 61 62 
3 62 50 60 
3 62 63 50 
3 63 51 50 
3 64 57 56 
3 65 57 64 
3 57 65 66 
3 59 57 66 
3 67 68 69 
3 69 70 71 
3 67 69 71 
3 67 71 62 
3 67 62 61 
3 62 71 63 
3 72 73 74 
3 75 73 72 
3 65 64 73 
3 65 73 76 
3 76 73 75 
3 65 76 66 
3 69 68 77 
3 70 69 77 
3 70 77 78 
3 78 77 79 
3 78 79 80 
3 79 81 80 
3 80 81 82 
3 81 83 82 
3 82 83 72 
3 74 82 72 
3 15 45 44 
3 16 15 44 
3 44 47 16 
3 16 47 18 
3 18 47 49 
3 20 18 49 
3 21 50 53 
3 22 21 53 
3 53 15 22 
3 45 15 53 
3 49 25 20 
3 58 25 49 
3 25 58 59 
3 26 25 59 
3 27 61 60 
3 28 27 60 
3 60 21 28 
3 50 21 60 
3 59 66 26 
3 66 31 26 
3 32 68 67 
3 33 32 67 
3 67 27 33 
3 61 27 67 
3 37 84 38 
3 84 75 72 
3 84 37 75 
3 37 39 75 
3 75 39 76 
3 39 40 76 
3 76 40 31 
3 66 76 31 
3 68 32 41 
3 77 68 41 
3 77 41 79 
3 41 42 79 
3 79 42 81 
3 42 43 81 
3 38 84 83 
3 38 83 43 
3 43 83 81 
3 84 72 83 
3 52 51 85 
3 54 52 85 
3 86 54 85 
3 55 54 86 
3 87 55 86 
3 55 87 56 
3 88 85 51 
3 63 88 51 
3 85 88 86 
3 86 88 89 
3 86 89 87 
3 87 89 90 
3 87 90 64 
3 56 87 64 
3 71 70 91 
3 63 71 91 
3 63 91 88 
3 88 91 92 
3 88 92 89 
3 89 92 93 
3 74 73 90 
3 74 90 93 
3 93 90 89 
3 90 73 64 
3 91 70 78 
3 92 91 78 
3 80 92 78 
3 93 92 80 
3 82 93 80 
3 93 82 74 

CELL_TYPES 184
5
5
5
5
5
5
5
5
5
5
5
5
5
5
5
5
5
5
5
5
5
5
5
5
5
5
5
5
5
5
5
5
5
5
5
5
5
5
5
5
5
5
5
5
5
5
5
5
5
5
5
5
5
5
5
5
5
5
5
5
5
5
5
5
5
5
5
5
5
5
5
5
5
5
5
5
5
5
5
5
5
5
5
5
5
5
5
5
5
5
5
5
5
5
5
5
5
5
5
5
5
5
5
5
5
5
5
5
5
5
5
5
5
5
5
5
5
5
5
5
5
5
5
5
5
5
5
5
5
5
5
5
5
5
5
5
5
5
5
5
5
5
5
5
5
5
5
5
5
5
5
5
5
5
5
5
5
5
5
5
5
5
5
5
5
5
5
5
5
5
5
5
5
5
5
5
5
5
5
5
5
5
5
5

CELL_DATA 184
SCALARS label int
LOOKUP_TABLE default
7 7 7 7 7 7 7 7 7 
7 7 7 7 7 7 7 7 7 
7 7 7 7 7 7 7 7 7 
7 7 7 7 7 7 7 7 7 
7 7 7 7 7 7 7 7 7 
7 7 7 7 7 7 7 7 7 
7 7 7 7 7 7 7 7 7 
7 7 7 7 7 7 7 7 7 
7 7 7 7 7 7 7 7 7 
7 7 7 7 7 7 7 7 7 
7 7 7 7 7 7 7 7 7 
7 7 7 7 7 7 7 7 7 
7 7 7 7 7 7 7 7 7 
7 7 7 7 7 7 7 7 7 
7 7 7 7 7 7 7 7 7 
7 7 7 7 7 7 7 7 7 
7 7 7 7 7 7 7 7 7 
7 7 7 7 7 7 7 7 7 
7 7 7 7 7 7 7 7 7 
7 7 7 7 7 7 7 7 7 
7 7 7 7 
