# vtk DataFile Version 4.1
vtk output
ASCII
DATASET UNSTRUCTURED_GRID
POINTS 104 float
707.5 698 1093 708 697.5 1093 708 698 1092.5 
708.5 698 1093 705.5 699 1093 706 698.5 1093 
706 699 1092.5 707 698.5 1093 707 699 1092.5 
708 699 1092.5 709 698.5 1093 709 699 1092.5 
709.5 699 1093 704.5 700 1093 705 699.5 1093 
705 700 1092.5 706 700 1092.5 707 700 1092.5 
708 700 1092.5 709 700 1092.5 709.5 700 1093 
703.5 701 1093 704 700.5 1093 704 701 1092.5 
705 701 1092.5 706 701 1092.5 707 701 1092.5 
708 700.5 1093 707.5 701 1093 709 700.5 1093 
702.5 702 1093 703 701.5 1093 703 702 1092.5 
704 702 1092.5 705 702 1092.5 706 701.5 1093 
705.5 702 1093 707 701.5 1093 702.5 703 1093 
703 703 1092.5 704 702.5 1093 703.5 703 1093 
705 702.5 1093 703 703.5 1093 705.5 698 1094 
706 697.5 1094 706 698 1093.5 707 697.5 1094 
707 698 1093.5 708 697.5 1094 708.5 698 1094 
705.5 699 1094 709 698.5 1094 709.5 699 1094 
704.5 700 1094 705 699.5 1094 709.5 700 1094 
703.5 701 1094 704 700.5 1094 708 701 1093.5 
709 700.5 1094 708.5 701 1094 702.5 702 1094 
703 701.5 1094 704.5 702 1094 705 702 1093.5 
705 701.5 1094 706 701.5 1094 707 701.5 1094 
708 701.5 1094 703 703 1093.5 703 702.5 1094 
704 702.5 1094 706 698 1094.5 706.5 698 1095 
707 697.5 1095 707.5 698 1095 708 698 1094.5 
706 698.5 1095 705.5 699 1095 708 698.5 1095 
708.5 699 1095 709 699 1094.5 705 700 1094.5 
706 699.5 1095 706 700 1094.5 706.5 700 1095 
708.5 700 1095 709 700 1094.5 704 701 1094.5 
705 701 1094.5 706 701 1094.5 707 701 1094.5 
707 700.5 1095 708 701 1094.5 708 700.5 1095 
703 702 1094.5 704 702 1094.5 707 698 1095.5 
706 699 1095.5 707 699 1095.5 708 699 1095.5 
707 700 1095.5 708 700 1095.5 
CELLS 204 816
3 0 1 2 
3 1 3 2 
3 4 5 6 
3 5 7 8 
3 6 5 8 
3 7 0 2 
3 7 2 8 
3 8 2 9 
3 3 10 11 
3 3 11 2 
3 2 11 9 
3 10 12 11 
3 13 14 15 
3 14 4 6 
3 14 6 15 
3 15 6 16 
3 6 8 16 
3 8 17 16 
3 8 9 17 
3 9 18 17 
3 9 11 18 
3 11 19 18 
3 12 20 19 
3 11 12 19 
3 21 22 23 
3 22 13 15 
3 22 15 23 
3 23 15 24 
3 15 16 24 
3 16 25 24 
3 16 17 25 
3 17 26 25 
3 27 28 26 
3 27 26 18 
3 18 26 17 
3 18 19 29 
3 27 18 29 
3 19 20 29 
3 30 31 32 
3 31 21 23 
3 31 23 32 
3 32 23 33 
3 23 24 33 
3 24 34 33 
3 35 36 34 
3 35 34 25 
3 25 34 24 
3 25 26 37 
3 35 25 37 
3 26 28 37 
3 38 30 32 
3 39 38 32 
3 40 41 39 
3 40 39 33 
3 33 39 32 
3 33 34 42 
3 40 33 42 
3 34 36 42 
3 38 39 43 
3 39 41 43 
3 44 45 46 
3 45 47 48 
3 46 45 48 
3 0 48 47 
3 0 47 1 
3 1 47 49 
3 1 49 50 
3 3 1 50 
3 46 5 4 
3 46 4 44 
3 44 4 51 
3 48 5 46 
3 7 5 48 
3 48 0 7 
3 50 10 3 
3 52 10 50 
3 10 52 53 
3 12 10 53 
3 13 54 55 
3 14 13 55 
3 55 4 14 
3 51 4 55 
3 53 56 12 
3 56 20 12 
3 21 57 58 
3 22 21 58 
3 58 13 22 
3 54 13 58 
3 27 59 28 
3 59 60 61 
3 59 27 60 
3 27 29 60 
3 60 29 20 
3 56 60 20 
3 30 62 63 
3 31 30 63 
3 63 21 31 
3 57 21 63 
3 64 65 66 
3 36 66 65 
3 36 35 66 
3 35 67 66 
3 67 35 68 
3 35 37 68 
3 28 59 69 
3 28 69 37 
3 37 69 68 
3 59 61 69 
3 70 71 62 
3 70 62 38 
3 38 62 30 
3 41 71 70 
3 41 40 71 
3 40 72 71 
3 65 64 72 
3 65 72 42 
3 42 72 40 
3 65 42 36 
3 70 38 43 
3 70 43 41 
3 45 44 73 
3 73 74 75 
3 73 75 45 
3 45 75 47 
3 76 77 49 
3 76 49 75 
3 75 49 47 
3 49 77 50 
3 78 73 44 
3 78 44 79 
3 79 44 51 
3 73 78 74 
3 76 80 77 
3 81 82 52 
3 80 81 52 
3 80 52 50 
3 80 50 77 
3 52 82 53 
3 55 54 83 
3 84 79 51 
3 84 51 83 
3 84 83 85 
3 55 83 51 
3 84 85 86 
3 87 82 81 
3 88 82 87 
3 82 88 56 
3 53 82 56 
3 58 57 89 
3 54 58 89 
3 54 89 83 
3 83 89 90 
3 83 90 85 
3 85 90 91 
3 86 92 93 
3 86 85 92 
3 85 91 92 
3 93 94 95 
3 92 94 93 
3 88 61 60 
3 87 61 88 
3 87 94 61 
3 87 95 94 
3 88 60 56 
3 63 62 96 
3 57 63 96 
3 57 96 89 
3 89 96 97 
3 64 66 90 
3 64 90 97 
3 97 90 89 
3 91 90 66 
3 67 91 66 
3 92 91 67 
3 68 92 67 
3 94 92 68 
3 69 94 68 
3 94 69 61 
3 96 62 71 
3 97 96 71 
3 72 97 71 
3 97 72 64 
3 75 74 98 
3 75 98 76 
3 78 79 99 
3 74 78 99 
3 74 99 98 
3 98 99 100 
3 80 76 98 
3 80 98 101 
3 101 98 100 
3 80 101 81 
3 99 79 84 
3 84 86 102 
3 84 102 99 
3 99 102 100 
3 100 102 101 
3 101 102 103 
3 101 103 87 
3 81 101 87 
3 102 86 93 
3 103 102 93 
3 95 103 93 
3 103 95 87 

CELL_TYPES 204
5
5
5
5
5
5
5
5
5
5
5
5
5
5
5
5
5
5
5
5
5
5
5
5
5
5
5
5
5
5
5
5
5
5
5
5
5
5
5
5
5
5
5
5
5
5
5
5
5
5
5
5
5
5
5
5
5
5
5
5
5
5
5
5
5
5
5
5
5
5
5
5
5
5
5
5
5
5
5
5
5
5
5
5
5
5
5
5
5
5
5
5
5
5
5
5
5
5
5
5
5
5
5
5
5
5
5
5
5
5
5
5
5
5
5
5
5
5
5
5
5
5
5
5
5
5
5
5
5
5
5
5
5
5
5
5
5
5
5
5
5
5
5
5
5
5
5
5
5
5
5
5
5
5
5
5
5
5
5
5
5
5
5
5
5
5
5
5
5
5
5
5
5
5
5
5
5
5
5
5
5
5
5
5
5
5
5
5
5
5
5
5
5
5
5
5
5
5
5
5
5
5
5
5

CELL_DATA 204
SCALARS label int
LOOKUP_TABLE default
11 11 11 11 11 11 11 11 11 
11 11 11 11 11 11 11 11 11 
11 11 11 11 11 11 11 11 11 
11 11 11 11 11 11 11 11 11 
11 11 11 11 11 11 11 11 11 
11 11 11 11 11 11 11 11 11 
11 11 11 11 11 11 11 11 11 
11 11 11 11 11 11 11 11 11 
11 11 11 11 11 11 11 11 11 
11 11 11 11 11 11 11 11 11 
11 11 11 11 11 11 11 11 11 
11 11 11 11 11 11 11 11 11 
11 11 11 11 11 11 11 11 11 
11 11 11 11 11 11 11 11 11 
11 11 11 11 11 11 11 11 11 
11 11 11 11 11 11 11 11 11 
11 11 11 11 11 11 11 11 11 
11 11 11 11 11 11 11 11 11 
11 11 11 11 11 11 11 11 11 
11 11 11 11 11 11 11 11 11 
11 11 11 11 11 11 11 11 11 
11 11 11 11 11 11 11 11 11 
11 11 11 11 11 11 
