# vtk DataFile Version 4.1
vtk output
ASCII
DATASET UNSTRUCTURED_GRID
POINTS 48 float
1003.5 268 744 1004 267.5 744 1004 268 743.5 
1005 267.5 744 1005 268 743.5 1006 267.5 744 
1006 268 743.5 1006.5 268 744 1004 268.5 744 
1005 268.5 744 1006 268.5 744 1003.5 267 745 
1004 266.5 745 1004 267 744.5 1005 266.5 745 
1005 267 744.5 1006 266.5 745 1006 267 744.5 
1007 266.5 745 1007 267 744.5 1007.5 267 745 
1003.5 268 745 1007 268 744.5 1007.5 268 745 
1004 268.5 745 1004.5 269 745 1005 269 744.5 
1006 268.5 745 1005.5 269 745 1007 268.5 745 
1005 269.5 745 1004 267 745.5 1005 267 745.5 
1006 267 745.5 1007 267 745.5 1004 268 745.5 
1005 267.5 746 1004.5 268 746 1006 267.5 746 
1007 267.5 746 1007.5 268 746 1005 269 745.5 
1005 268.5 746 1006 268.5 746 1007 268.5 746 
1005 268 746.5 1006 268 746.5 1007 268 746.5 

CELLS 92 368
3 0 1 2 
3 1 3 4 
3 2 1 4 
3 3 5 6 
3 4 3 6 
3 5 7 6 
3 0 2 8 
3 2 4 9 
3 8 2 9 
3 4 6 10 
3 9 4 10 
3 6 7 10 
3 11 12 13 
3 12 14 15 
3 13 12 15 
3 14 16 17 
3 15 14 17 
3 16 18 19 
3 17 16 19 
3 18 20 19 
3 13 1 0 
3 13 0 11 
3 11 0 21 
3 15 1 13 
3 3 1 15 
3 17 3 15 
3 5 3 17 
3 5 22 7 
3 5 17 22 
3 17 19 22 
3 20 23 22 
3 19 20 22 
3 21 0 8 
3 24 21 8 
3 25 9 26 
3 25 24 9 
3 24 8 9 
3 26 27 28 
3 26 9 27 
3 9 10 27 
3 7 22 29 
3 7 29 10 
3 10 29 27 
3 22 23 29 
3 25 26 30 
3 26 28 30 
3 12 11 31 
3 14 12 31 
3 32 14 31 
3 16 14 32 
3 33 16 32 
3 18 16 33 
3 34 18 33 
3 18 34 20 
3 35 31 11 
3 21 35 11 
3 36 35 37 
3 36 32 35 
3 32 31 35 
3 32 38 33 
3 36 38 32 
3 33 39 34 
3 38 39 33 
3 34 39 40 
3 34 40 20 
3 20 40 23 
3 35 21 24 
3 24 25 41 
3 35 24 41 
3 35 41 42 
3 35 42 37 
3 28 42 41 
3 28 27 42 
3 27 43 42 
3 43 27 44 
3 27 29 44 
3 44 29 23 
3 40 44 23 
3 41 25 30 
3 41 30 28 
3 36 37 45 
3 38 36 45 
3 46 38 45 
3 39 38 46 
3 47 39 46 
3 39 47 40 
3 45 37 42 
3 46 45 42 
3 43 46 42 
3 47 46 43 
3 44 47 43 
3 47 44 40 

CELL_TYPES 92
5
5
5
5
5
5
5
5
5
5
5
5
5
5
5
5
5
5
5
5
5
5
5
5
5
5
5
5
5
5
5
5
5
5
5
5
5
5
5
5
5
5
5
5
5
5
5
5
5
5
5
5
5
5
5
5
5
5
5
5
5
5
5
5
5
5
5
5
5
5
5
5
5
5
5
5
5
5
5
5
5
5
5
5
5
5
5
5
5
5
5
5

CELL_DATA 92
SCALARS label int
LOOKUP_TABLE default
9 9 9 9 9 9 9 9 9 
9 9 9 9 9 9 9 9 9 
9 9 9 9 9 9 9 9 9 
9 9 9 9 9 9 9 9 9 
9 9 9 9 9 9 9 9 9 
9 9 9 9 9 9 9 9 9 
9 9 9 9 9 9 9 9 9 
9 9 9 9 9 9 9 9 9 
9 9 9 9 9 9 9 9 9 
9 9 9 9 9 9 9 9 9 
9 9 
