# vtk DataFile Version 4.1
vtk output
ASCII
DATASET UNSTRUCTURED_GRID
POINTS 36 float
1495.5 558 62 1496 557.5 62 1496 558 61.5 
1496.5 558 62 1494.5 559 62 1495 558.5 62 
1495 559 61.5 1496 559 61.5 1497 558.5 62 
1497 559 61.5 1497.5 559 62 1494.5 560 62 
1495 560 61.5 1496 560 61.5 1497 560 61.5 
1497.5 560 62 1495 560.5 62 1496 560.5 62 
1497 560.5 62 1496 558 62.5 1494.5 559 63 
1495 558.5 63 1496 558.5 63 1497 558.5 63 
1497.5 559 63 1494.5 560 63 1497.5 560 63 
1495 560.5 63 1496 560.5 63 1497 560.5 63 
1495 559 63.5 1496 559 63.5 1497 559 63.5 
1495 560 63.5 1496 560 63.5 1497 560 63.5 

CELLS 68 272
3 0 1 2 
3 1 3 2 
3 4 5 6 
3 5 0 2 
3 5 2 6 
3 6 2 7 
3 3 8 9 
3 3 9 2 
3 2 9 7 
3 8 10 9 
3 11 4 6 
3 12 11 6 
3 6 7 12 
3 7 13 12 
3 7 9 13 
3 9 14 13 
3 10 15 14 
3 9 10 14 
3 11 12 16 
3 12 13 17 
3 16 12 17 
3 13 14 18 
3 17 13 18 
3 14 15 18 
3 1 0 19 
3 1 19 3 
3 4 20 21 
3 5 4 21 
3 0 22 19 
3 0 5 22 
3 5 21 22 
3 19 8 3 
3 19 22 8 
3 22 23 8 
3 8 23 24 
3 10 8 24 
3 20 4 25 
3 25 4 11 
3 24 26 10 
3 26 15 10 
3 25 11 16 
3 27 25 16 
3 27 16 28 
3 16 17 28 
3 28 17 29 
3 17 18 29 
3 29 18 15 
3 26 29 15 
3 21 20 30 
3 22 21 30 
3 31 22 30 
3 23 22 31 
3 32 23 31 
3 23 32 24 
3 33 30 20 
3 25 33 20 
3 30 33 31 
3 31 33 34 
3 31 34 32 
3 32 34 35 
3 32 35 26 
3 24 32 26 
3 33 25 27 
3 34 33 27 
3 28 34 27 
3 35 34 28 
3 29 35 28 
3 35 29 26 

CELL_TYPES 68
5
5
5
5
5
5
5
5
5
5
5
5
5
5
5
5
5
5
5
5
5
5
5
5
5
5
5
5
5
5
5
5
5
5
5
5
5
5
5
5
5
5
5
5
5
5
5
5
5
5
5
5
5
5
5
5
5
5
5
5
5
5
5
5
5
5
5
5

CELL_DATA 68
SCALARS label int
LOOKUP_TABLE default
1 1 1 1 1 1 1 1 1 
1 1 1 1 1 1 1 1 1 
1 1 1 1 1 1 1 1 1 
1 1 1 1 1 1 1 1 1 
1 1 1 1 1 1 1 1 1 
1 1 1 1 1 1 1 1 1 
1 1 1 1 1 1 1 1 1 
1 1 1 1 1 
