# vtk DataFile Version 4.1
vtk output
ASCII
DATASET UNSTRUCTURED_GRID
POINTS 112 float
512.5 307 148 513 306.5 148 513 307 147.5 
513.5 307 148 511.5 308 148 512 307.5 148 
512 308 147.5 513 308 147.5 514 307.5 148 
514 308 147.5 514.5 308 148 511.5 309 148 
512 309 147.5 513 309 147.5 514 308.5 148 
513.5 309 148 509.5 310 148 510 309.5 148 
510 310 147.5 510.5 310 148 512 309.5 148 
513 309.5 148 508.5 311 148 509 310.5 148 
509 311 147.5 510 311 147.5 510.5 311 148 
509 311.5 148 510 311.5 148 512.5 307 149 
513 306.5 149 514 307 148.5 514 306.5 149 
514.5 307 149 511.5 308 149 512 307.5 149 
515 308 148.5 515 307.5 149 515.5 308 149 
509.5 309 149 510 308.5 149 510 309 148.5 
511 308.5 149 511 309 148.5 514 309 148.5 
515 308.5 149 514.5 309 149 508.5 310 149 
509 309.5 149 509 310 148.5 511 310 148.5 
512 310 148.5 513 309.5 149 512.5 310 149 
514 309.5 149 508.5 311 149 511 311 148.5 
512 310.5 149 511.5 311 149 509 312 148.5 
508.5 312 149 510 312 148.5 511 311.5 149 
510.5 312 149 509 312.5 149 510 312.5 149 
512.5 307 150 513 306.5 150 514 306.5 150 
515 307 149.5 515 306.5 150 515.5 307 150 
511.5 308 150 512 307.5 150 515.5 308 150 
510 309 149.5 510.5 309 150 511 308.5 150 
515 308.5 150 514.5 309 150 509 310 149.5 
509.5 310 150 510 309.5 150 511.5 310 150 
512 310 149.5 512 309.5 150 513 309.5 150 
514 309.5 150 513 307 150.5 514 307 150.5 
515 307 150.5 509 311 149.5 510 311 149.5 
510 310.5 150 511 311 149.5 511 310.5 150 
512 308 150.5 513 308 150.5 514 307.5 151 
513.5 308 151 514.5 308 151 515 308 150.5 
509 312 149.5 510 312 149.5 511 309 150.5 
512 309 150.5 513 309 150.5 514 309 150.5 
514 308.5 151 510 310 150.5 511 310 150.5 
514 308 151.5 
CELLS 220 880
3 0 1 2 
3 1 3 2 
3 4 5 6 
3 5 0 2 
3 5 2 6 
3 6 2 7 
3 3 8 9 
3 3 9 2 
3 2 9 7 
3 8 10 9 
3 11 4 6 
3 12 11 6 
3 6 7 12 
3 7 13 12 
3 14 15 13 
3 14 13 9 
3 9 13 7 
3 9 10 14 
3 16 17 18 
3 17 19 18 
3 11 12 20 
3 12 13 21 
3 20 12 21 
3 13 15 21 
3 22 23 24 
3 23 16 18 
3 23 18 24 
3 24 18 25 
3 19 26 25 
3 18 19 25 
3 22 24 27 
3 24 25 28 
3 27 24 28 
3 25 26 28 
3 0 29 30 
3 1 0 30 
3 31 3 1 
3 31 1 32 
3 32 1 30 
3 32 33 31 
3 4 34 35 
3 5 4 35 
3 35 0 5 
3 29 0 35 
3 31 8 3 
3 8 36 10 
3 31 36 8 
3 31 37 36 
3 31 33 37 
3 37 38 36 
3 39 40 41 
3 40 42 43 
3 41 40 43 
3 42 11 43 
3 42 34 11 
3 34 4 11 
3 14 44 15 
3 44 45 46 
3 14 45 44 
3 14 36 45 
3 14 10 36 
3 36 38 45 
3 47 48 49 
3 41 17 16 
3 39 41 16 
3 39 16 49 
3 39 49 48 
3 17 50 19 
3 17 41 50 
3 41 43 50 
3 20 43 11 
3 20 51 43 
3 51 50 43 
3 51 52 53 
3 51 20 52 
3 20 21 52 
3 15 44 54 
3 15 54 21 
3 21 54 52 
3 44 46 54 
3 49 23 22 
3 49 22 47 
3 47 22 55 
3 49 16 23 
3 56 19 50 
3 26 19 56 
3 57 58 56 
3 57 56 51 
3 51 56 50 
3 51 53 57 
3 27 59 60 
3 27 60 22 
3 22 60 55 
3 28 59 27 
3 61 59 28 
3 61 62 63 
3 28 62 61 
3 28 56 62 
3 28 26 56 
3 56 58 62 
3 60 59 64 
3 59 61 65 
3 64 59 65 
3 61 63 65 
3 29 66 67 
3 30 29 67 
3 67 68 30 
3 30 68 32 
3 69 33 32 
3 69 32 70 
3 70 32 68 
3 70 71 69 
3 34 72 73 
3 35 34 73 
3 73 29 35 
3 66 29 73 
3 69 37 33 
3 37 69 71 
3 37 71 38 
3 38 71 74 
3 40 39 75 
3 75 76 77 
3 75 77 40 
3 40 77 42 
3 77 34 42 
3 72 34 77 
3 46 78 79 
3 45 78 46 
3 78 45 38 
3 74 78 38 
3 48 47 80 
3 80 81 82 
3 48 80 82 
3 48 82 75 
3 48 75 39 
3 75 82 76 
3 83 84 85 
3 53 85 84 
3 53 52 85 
3 52 86 85 
3 86 52 87 
3 52 54 87 
3 87 54 46 
3 79 87 46 
3 67 66 88 
3 68 67 88 
3 89 68 88 
3 70 68 89 
3 90 70 89 
3 70 90 71 
3 91 80 47 
3 55 91 47 
3 81 92 93 
3 81 80 92 
3 80 91 92 
3 93 94 95 
3 92 94 93 
3 84 58 57 
3 83 58 84 
3 83 94 58 
3 83 95 94 
3 84 57 53 
3 73 72 96 
3 66 73 96 
3 66 96 88 
3 88 96 97 
3 98 97 99 
3 98 89 97 
3 89 88 97 
3 100 89 98 
3 100 101 89 
3 101 90 89 
3 90 101 74 
3 71 90 74 
3 102 91 55 
3 60 102 55 
3 91 102 92 
3 92 102 103 
3 63 62 94 
3 63 94 103 
3 103 94 92 
3 94 62 58 
3 77 76 104 
3 72 77 104 
3 72 104 96 
3 96 104 105 
3 96 105 97 
3 97 105 106 
3 99 107 108 
3 99 97 107 
3 97 106 107 
3 101 79 78 
3 100 79 101 
3 100 107 79 
3 100 108 107 
3 101 78 74 
3 102 60 64 
3 103 102 64 
3 65 103 64 
3 103 65 63 
3 82 81 109 
3 76 82 109 
3 76 109 104 
3 104 109 110 
3 83 85 105 
3 83 105 110 
3 110 105 104 
3 106 105 85 
3 86 106 85 
3 107 106 86 
3 87 107 86 
3 107 87 79 
3 109 81 93 
3 110 109 93 
3 95 110 93 
3 110 95 83 
3 98 99 111 
3 98 111 100 
3 111 99 108 
3 111 108 100 

CELL_TYPES 220
5
5
5
5
5
5
5
5
5
5
5
5
5
5
5
5
5
5
5
5
5
5
5
5
5
5
5
5
5
5
5
5
5
5
5
5
5
5
5
5
5
5
5
5
5
5
5
5
5
5
5
5
5
5
5
5
5
5
5
5
5
5
5
5
5
5
5
5
5
5
5
5
5
5
5
5
5
5
5
5
5
5
5
5
5
5
5
5
5
5
5
5
5
5
5
5
5
5
5
5
5
5
5
5
5
5
5
5
5
5
5
5
5
5
5
5
5
5
5
5
5
5
5
5
5
5
5
5
5
5
5
5
5
5
5
5
5
5
5
5
5
5
5
5
5
5
5
5
5
5
5
5
5
5
5
5
5
5
5
5
5
5
5
5
5
5
5
5
5
5
5
5
5
5
5
5
5
5
5
5
5
5
5
5
5
5
5
5
5
5
5
5
5
5
5
5
5
5
5
5
5
5
5
5
5
5
5
5
5
5
5
5
5
5
5
5
5
5
5
5

CELL_DATA 220
SCALARS label int
LOOKUP_TABLE default
1 1 1 1 1 1 1 1 1 
1 1 1 1 1 1 1 1 1 
1 1 1 1 1 1 1 1 1 
1 1 1 1 1 1 1 1 1 
1 1 1 1 1 1 1 1 1 
1 1 1 1 1 1 1 1 1 
1 1 1 1 1 1 1 1 1 
1 1 1 1 1 1 1 1 1 
1 1 1 1 1 1 1 1 1 
1 1 1 1 1 1 1 1 1 
1 1 1 1 1 1 1 1 1 
1 1 1 1 1 1 1 1 1 
1 1 1 1 1 1 1 1 1 
1 1 1 1 1 1 1 1 1 
1 1 1 1 1 1 1 1 1 
1 1 1 1 1 1 1 1 1 
1 1 1 1 1 1 1 1 1 
1 1 1 1 1 1 1 1 1 
1 1 1 1 1 1 1 1 1 
1 1 1 1 1 1 1 1 1 
1 1 1 1 1 1 1 1 1 
1 1 1 1 1 1 1 1 1 
1 1 1 1 1 1 1 1 1 
1 1 1 1 1 1 1 1 1 
1 1 1 1 
