# vtk DataFile Version 4.1
vtk output
ASCII
DATASET UNSTRUCTURED_GRID
POINTS 64 float
863.5 1221 590 864 1220.5 590 864 1221 589.5 
865 1220.5 590 865 1221 589.5 866 1220.5 590 
866 1221 589.5 866.5 1221 590 863.5 1222 590 
864 1222 589.5 865 1222 589.5 866 1222 589.5 
867 1221.5 590 867 1222 589.5 867.5 1222 590 
863.5 1223 590 864 1223 589.5 865 1223 589.5 
866 1223 589.5 867 1222.5 590 866.5 1223 590 
864 1223.5 590 865 1223.5 590 866 1223.5 590 
863.5 1221 591 864 1220.5 591 865 1220.5 591 
866 1220.5 591 867 1221 590.5 867 1220.5 591 
867.5 1221 591 862.5 1222 591 863 1221.5 591 
863 1222 590.5 867.5 1222 591 862.5 1223 591 
863 1223 590.5 867 1222.5 591 866.5 1223 591 
863 1223.5 591 864 1223.5 591 865 1223.5 591 
866 1223.5 591 864 1221 591.5 865 1221 591.5 
866 1221 591.5 867 1221 591.5 863 1222 591.5 
863.5 1222 592 864 1221.5 592 865 1221.5 592 
866 1221.5 592 866.5 1222 592 867 1222 591.5 
863 1223 591.5 864 1223 591.5 864 1222.5 592 
865 1223 591.5 865 1222.5 592 866 1223 591.5 
866 1222.5 592 864 1222 592.5 865 1222 592.5 
866 1222 592.5 
CELLS 124 496
3 0 1 2 
3 1 3 4 
3 2 1 4 
3 3 5 6 
3 4 3 6 
3 5 7 6 
3 8 0 2 
3 9 8 2 
3 2 4 9 
3 4 10 9 
3 4 6 10 
3 6 11 10 
3 7 12 13 
3 7 13 6 
3 6 13 11 
3 12 14 13 
3 15 8 9 
3 16 15 9 
3 9 10 16 
3 10 17 16 
3 10 11 17 
3 11 18 17 
3 19 20 18 
3 19 18 13 
3 13 18 11 
3 13 14 19 
3 15 16 21 
3 16 17 22 
3 21 16 22 
3 17 18 23 
3 22 17 23 
3 18 20 23 
3 0 24 25 
3 1 0 25 
3 25 26 1 
3 1 26 3 
3 26 27 3 
3 3 27 5 
3 28 7 5 
3 28 5 29 
3 29 5 27 
3 29 30 28 
3 31 32 33 
3 32 8 33 
3 32 24 8 
3 24 0 8 
3 28 12 7 
3 12 28 30 
3 12 30 14 
3 14 30 34 
3 35 31 33 
3 36 35 33 
3 33 15 36 
3 8 15 33 
3 20 37 38 
3 19 37 20 
3 37 19 14 
3 34 37 14 
3 35 36 39 
3 36 15 21 
3 36 21 39 
3 39 21 40 
3 40 21 41 
3 21 22 41 
3 41 22 42 
3 22 23 42 
3 42 23 20 
3 38 42 20 
3 25 24 43 
3 26 25 43 
3 44 26 43 
3 27 26 44 
3 45 27 44 
3 29 27 45 
3 46 29 45 
3 29 46 30 
3 32 31 47 
3 47 48 49 
3 32 47 49 
3 32 49 43 
3 32 43 24 
3 43 50 44 
3 49 50 43 
3 44 51 45 
3 50 51 44 
3 52 45 51 
3 52 53 45 
3 53 46 45 
3 46 53 34 
3 30 46 34 
3 54 47 31 
3 35 54 31 
3 48 55 56 
3 48 47 55 
3 47 54 55 
3 56 57 58 
3 55 57 56 
3 58 59 60 
3 57 59 58 
3 53 38 37 
3 52 38 53 
3 52 59 38 
3 52 60 59 
3 53 37 34 
3 54 35 39 
3 55 54 39 
3 40 55 39 
3 57 55 40 
3 41 57 40 
3 59 57 41 
3 42 59 41 
3 59 42 38 
3 49 48 61 
3 50 49 61 
3 62 50 61 
3 51 50 62 
3 63 51 62 
3 51 63 52 
3 61 48 56 
3 62 61 56 
3 58 62 56 
3 63 62 58 
3 60 63 58 
3 63 60 52 

CELL_TYPES 124
5
5
5
5
5
5
5
5
5
5
5
5
5
5
5
5
5
5
5
5
5
5
5
5
5
5
5
5
5
5
5
5
5
5
5
5
5
5
5
5
5
5
5
5
5
5
5
5
5
5
5
5
5
5
5
5
5
5
5
5
5
5
5
5
5
5
5
5
5
5
5
5
5
5
5
5
5
5
5
5
5
5
5
5
5
5
5
5
5
5
5
5
5
5
5
5
5
5
5
5
5
5
5
5
5
5
5
5
5
5
5
5
5
5
5
5
5
5
5
5
5
5
5
5

CELL_DATA 124
SCALARS label int
LOOKUP_TABLE default
4 4 4 4 4 4 4 4 4 
4 4 4 4 4 4 4 4 4 
4 4 4 4 4 4 4 4 4 
4 4 4 4 4 4 4 4 4 
4 4 4 4 4 4 4 4 4 
4 4 4 4 4 4 4 4 4 
4 4 4 4 4 4 4 4 4 
4 4 4 4 4 4 4 4 4 
4 4 4 4 4 4 4 4 4 
4 4 4 4 4 4 4 4 4 
4 4 4 4 4 4 4 4 4 
4 4 4 4 4 4 4 4 4 
4 4 4 4 4 4 4 4 4 
4 4 4 4 4 4 4 
