# vtk DataFile Version 4.1
vtk output
ASCII
DATASET UNSTRUCTURED_GRID
POINTS 48 float
591.5 430 566 592 429.5 566 592 430 565.5 
593 429.5 566 593 430 565.5 593.5 430 566 
592 430.5 566 593 430.5 566 591.5 429 567 
592 428.5 567 592 429 566.5 593 428.5 567 
593 429 566.5 594 428.5 567 594 429 566.5 
594.5 429 567 590.5 430 567 591 429.5 567 
591 430 566.5 594 430 566.5 594.5 430 567 
590.5 431 567 591 431 566.5 592 431 566.5 
593 431 566.5 594 430.5 567 593.5 431 567 
591 431.5 567 592 431.5 567 593 431.5 567 
591.5 429 568 592 428.5 568 593 428.5 568 
593.5 429 568 594 429 567.5 591 430 567.5 
591.5 430 568 593.5 430 568 594 430 567.5 
591 431 567.5 592 431 567.5 592 430.5 568 
593 431 567.5 593 430.5 568 592 429 568.5 
593 429 568.5 592 430 568.5 593 430 568.5 

CELLS 92 368
3 0 1 2 
3 1 3 4 
3 2 1 4 
3 3 5 4 
3 0 2 6 
3 2 4 7 
3 6 2 7 
3 4 5 7 
3 8 9 10 
3 9 11 12 
3 10 9 12 
3 11 13 14 
3 12 11 14 
3 13 15 14 
3 16 17 18 
3 10 1 0 
3 8 10 0 
3 8 0 18 
3 8 18 17 
3 12 1 10 
3 3 1 12 
3 3 19 5 
3 3 12 19 
3 12 14 19 
3 15 20 19 
3 14 15 19 
3 21 16 18 
3 22 21 18 
3 6 18 0 
3 6 23 18 
3 23 22 18 
3 7 23 6 
3 24 23 7 
3 24 25 26 
3 7 25 24 
3 7 19 25 
3 7 5 19 
3 19 20 25 
3 21 22 27 
3 22 23 28 
3 27 22 28 
3 23 24 29 
3 28 23 29 
3 24 26 29 
3 8 30 31 
3 9 8 31 
3 31 32 9 
3 9 32 11 
3 33 34 13 
3 33 13 32 
3 32 13 11 
3 13 34 15 
3 17 16 35 
3 35 8 17 
3 35 36 8 
3 36 30 8 
3 37 34 33 
3 38 34 37 
3 34 38 20 
3 15 34 20 
3 39 35 16 
3 21 39 16 
3 36 40 41 
3 36 35 40 
3 35 39 40 
3 41 42 43 
3 40 42 41 
3 38 26 25 
3 37 26 38 
3 37 42 26 
3 37 43 42 
3 38 25 20 
3 39 21 27 
3 40 39 27 
3 28 40 27 
3 42 40 28 
3 29 42 28 
3 42 29 26 
3 31 30 44 
3 32 31 44 
3 45 32 44 
3 32 45 33 
3 46 44 30 
3 36 46 30 
3 44 46 45 
3 45 46 47 
3 45 47 37 
3 33 45 37 
3 46 36 41 
3 47 46 41 
3 43 47 41 
3 47 43 37 

CELL_TYPES 92
5
5
5
5
5
5
5
5
5
5
5
5
5
5
5
5
5
5
5
5
5
5
5
5
5
5
5
5
5
5
5
5
5
5
5
5
5
5
5
5
5
5
5
5
5
5
5
5
5
5
5
5
5
5
5
5
5
5
5
5
5
5
5
5
5
5
5
5
5
5
5
5
5
5
5
5
5
5
5
5
5
5
5
5
5
5
5
5
5
5
5
5

CELL_DATA 92
SCALARS label int
LOOKUP_TABLE default
3 3 3 3 3 3 3 3 3 
3 3 3 3 3 3 3 3 3 
3 3 3 3 3 3 3 3 3 
3 3 3 3 3 3 3 3 3 
3 3 3 3 3 3 3 3 3 
3 3 3 3 3 3 3 3 3 
3 3 3 3 3 3 3 3 3 
3 3 3 3 3 3 3 3 3 
3 3 3 3 3 3 3 3 3 
3 3 3 3 3 3 3 3 3 
3 3 
