# vtk DataFile Version 4.1
vtk output
ASCII
DATASET UNSTRUCTURED_GRID
POINTS 60 float
981.5 750 606 982 749.5 606 982 750 605.5 
983 749.5 606 983 750 605.5 984 749.5 606 
984 750 605.5 984.5 750 606 982 750.5 606 
983 750.5 606 984 750.5 606 981.5 749 607 
982 748.5 607 982 749 606.5 983 748.5 607 
983 749 606.5 984 748.5 607 984 749 606.5 
984.5 749 607 980.5 750 607 981 749.5 607 
981 750 606.5 985 750 606.5 985 749.5 607 
985.5 750 607 981 750.5 607 981.5 751 607 
982 751 606.5 983 751 606.5 984 751 606.5 
985 750.5 607 984.5 751 607 982 751.5 607 
983 751.5 607 984 751.5 607 982 749 607.5 
982.5 749 608 983 748.5 608 984 748.5 608 
984.5 749 608 981 750 607.5 981.5 750 608 
982 749.5 608 985 749.5 608 985.5 750 608 
981.5 751 608 985 750.5 608 984.5 751 608 
982 751.5 608 983 751.5 608 984 751.5 608 
983 749 608.5 984 749 608.5 982 750 608.5 
983 750 608.5 984 750 608.5 985 750 608.5 
982 751 608.5 983 751 608.5 984 751 608.5 

CELLS 116 464
3 0 1 2 
3 1 3 4 
3 2 1 4 
3 3 5 6 
3 4 3 6 
3 5 7 6 
3 0 2 8 
3 2 4 9 
3 8 2 9 
3 4 6 10 
3 9 4 10 
3 6 7 10 
3 11 12 13 
3 12 14 15 
3 13 12 15 
3 14 16 17 
3 15 14 17 
3 16 18 17 
3 19 20 21 
3 13 1 0 
3 11 13 0 
3 11 0 21 
3 11 21 20 
3 15 1 13 
3 3 1 15 
3 17 3 15 
3 5 3 17 
3 5 22 7 
3 17 22 5 
3 17 23 22 
3 17 18 23 
3 23 24 22 
3 19 21 25 
3 26 8 27 
3 25 8 26 
3 25 0 8 
3 25 21 0 
3 9 27 8 
3 28 27 9 
3 10 28 9 
3 29 28 10 
3 29 30 31 
3 10 30 29 
3 10 22 30 
3 10 7 22 
3 22 24 30 
3 26 27 32 
3 27 28 33 
3 32 27 33 
3 28 29 34 
3 33 28 34 
3 29 31 34 
3 12 11 35 
3 35 36 37 
3 35 37 12 
3 12 37 14 
3 37 38 14 
3 14 38 16 
3 16 38 39 
3 18 16 39 
3 20 19 40 
3 40 41 42 
3 20 40 42 
3 20 42 35 
3 20 35 11 
3 35 42 36 
3 39 23 18 
3 43 23 39 
3 23 43 44 
3 24 23 44 
3 40 19 25 
3 25 41 40 
3 25 26 41 
3 26 45 41 
3 31 46 47 
3 30 46 31 
3 46 30 24 
3 44 46 24 
3 45 26 32 
3 48 45 32 
3 48 32 49 
3 32 33 49 
3 49 33 50 
3 33 34 50 
3 50 34 31 
3 47 50 31 
3 37 36 51 
3 38 37 51 
3 52 38 51 
3 38 52 39 
3 42 41 53 
3 36 42 53 
3 36 53 51 
3 51 53 54 
3 51 54 52 
3 52 54 55 
3 43 39 52 
3 43 52 56 
3 56 52 55 
3 43 56 44 
3 57 53 41 
3 45 57 41 
3 53 57 54 
3 54 57 58 
3 54 58 55 
3 55 58 59 
3 47 46 56 
3 47 56 59 
3 59 56 55 
3 56 46 44 
3 57 45 48 
3 58 57 48 
3 49 58 48 
3 59 58 49 
3 50 59 49 
3 59 50 47 

CELL_TYPES 116
5
5
5
5
5
5
5
5
5
5
5
5
5
5
5
5
5
5
5
5
5
5
5
5
5
5
5
5
5
5
5
5
5
5
5
5
5
5
5
5
5
5
5
5
5
5
5
5
5
5
5
5
5
5
5
5
5
5
5
5
5
5
5
5
5
5
5
5
5
5
5
5
5
5
5
5
5
5
5
5
5
5
5
5
5
5
5
5
5
5
5
5
5
5
5
5
5
5
5
5
5
5
5
5
5
5
5
5
5
5
5
5
5
5
5
5

CELL_DATA 116
SCALARS label int
LOOKUP_TABLE default
5 5 5 5 5 5 5 5 5 
5 5 5 5 5 5 5 5 5 
5 5 5 5 5 5 5 5 5 
5 5 5 5 5 5 5 5 5 
5 5 5 5 5 5 5 5 5 
5 5 5 5 5 5 5 5 5 
5 5 5 5 5 5 5 5 5 
5 5 5 5 5 5 5 5 5 
5 5 5 5 5 5 5 5 5 
5 5 5 5 5 5 5 5 5 
5 5 5 5 5 5 5 5 5 
5 5 5 5 5 5 5 5 5 
5 5 5 5 5 5 5 5 
