# vtk DataFile Version 4.1
vtk output
ASCII
DATASET UNSTRUCTURED_GRID
POINTS 50 float
512.5 308 158 513 307.5 158 513 308 157.5 
514 307.5 158 514 308 157.5 515 307.5 158 
515 308 157.5 515.5 308 158 512.5 309 158 
513 309 157.5 514 308.5 158 513.5 309 158 
515 308.5 158 513 309.5 158 512.5 307 159 
513 306.5 159 513 307 158.5 514 306.5 159 
514 307 158.5 514.5 307 159 511.5 308 159 
512 307.5 159 512 308 158.5 515 307.5 159 
516 308 158.5 516 307.5 159 516.5 308 159 
511.5 309 159 512 309 158.5 514 309 158.5 
515 308.5 159 514.5 309 159 516 308.5 159 
512 309.5 159 513 309.5 159 514 309.5 159 
513 307 159.5 514 307 159.5 512 308 159.5 
512.5 308 160 513 307.5 160 513.5 308 160 
514 308 159.5 515 308 159.5 516 308 159.5 
512 309 159.5 513 309 159.5 513 308.5 160 
514 309 159.5 513 308 160.5 
CELLS 96 384
3 0 1 2 
3 1 3 4 
3 2 1 4 
3 3 5 6 
3 4 3 6 
3 5 7 6 
3 8 0 2 
3 9 8 2 
3 10 11 9 
3 10 9 4 
3 4 9 2 
3 4 6 12 
3 10 4 12 
3 6 7 12 
3 8 9 13 
3 9 11 13 
3 14 15 16 
3 15 17 18 
3 16 15 18 
3 17 19 18 
3 20 21 22 
3 16 1 0 
3 14 16 0 
3 14 0 22 
3 14 22 21 
3 18 1 16 
3 3 1 18 
3 19 3 18 
3 19 23 3 
3 23 5 3 
3 24 7 5 
3 24 5 25 
3 25 5 23 
3 25 26 24 
3 27 20 22 
3 28 27 22 
3 22 8 28 
3 0 8 22 
3 10 29 11 
3 29 30 31 
3 29 10 30 
3 10 12 30 
3 7 24 32 
3 7 32 12 
3 12 32 30 
3 24 26 32 
3 27 28 33 
3 28 8 13 
3 28 13 33 
3 33 13 34 
3 11 29 35 
3 11 35 13 
3 13 35 34 
3 29 31 35 
3 15 14 36 
3 17 15 36 
3 37 17 36 
3 17 37 19 
3 21 20 38 
3 38 39 40 
3 21 38 40 
3 21 40 36 
3 21 36 14 
3 41 36 40 
3 41 42 36 
3 42 37 36 
3 23 19 37 
3 23 37 43 
3 43 37 42 
3 25 23 43 
3 44 25 43 
3 25 44 26 
3 45 38 20 
3 27 45 20 
3 39 46 47 
3 39 38 46 
3 38 45 46 
3 47 42 41 
3 47 46 42 
3 46 48 42 
3 31 30 43 
3 31 43 48 
3 48 43 42 
3 44 43 30 
3 32 44 30 
3 44 32 26 
3 45 27 33 
3 46 45 33 
3 34 46 33 
3 48 46 34 
3 35 48 34 
3 48 35 31 
3 40 39 49 
3 40 49 41 
3 49 39 47 
3 49 47 41 

CELL_TYPES 96
5
5
5
5
5
5
5
5
5
5
5
5
5
5
5
5
5
5
5
5
5
5
5
5
5
5
5
5
5
5
5
5
5
5
5
5
5
5
5
5
5
5
5
5
5
5
5
5
5
5
5
5
5
5
5
5
5
5
5
5
5
5
5
5
5
5
5
5
5
5
5
5
5
5
5
5
5
5
5
5
5
5
5
5
5
5
5
5
5
5
5
5
5
5
5
5

CELL_DATA 96
SCALARS label int
LOOKUP_TABLE default
2 2 2 2 2 2 2 2 2 
2 2 2 2 2 2 2 2 2 
2 2 2 2 2 2 2 2 2 
2 2 2 2 2 2 2 2 2 
2 2 2 2 2 2 2 2 2 
2 2 2 2 2 2 2 2 2 
2 2 2 2 2 2 2 2 2 
2 2 2 2 2 2 2 2 2 
2 2 2 2 2 2 2 2 2 
2 2 2 2 2 2 2 2 2 
2 2 2 2 2 2 
