# vtk DataFile Version 4.1
vtk output
ASCII
DATASET UNSTRUCTURED_GRID
POINTS 116 float
707.5 699 1094 708 698.5 1094 708 699 1093.5 
709 698.5 1094 709 699 1093.5 710 698.5 1094 
710 699 1093.5 710.5 699 1094 706.5 700 1094 
707 699.5 1094 707 700 1093.5 708 700 1093.5 
709 700 1093.5 710 700 1093.5 710.5 700 1094 
703.5 701 1094 704 700.5 1094 704 701 1093.5 
705 700.5 1094 705 701 1093.5 706 700.5 1094 
706 701 1093.5 707 701 1093.5 708 700.5 1094 
707.5 701 1094 709 700.5 1094 710 700.5 1094 
702.5 702 1094 703 701.5 1094 703 702 1093.5 
704 702 1093.5 705 702 1093.5 706 701.5 1094 
705.5 702 1094 707 701.5 1094 702.5 703 1094 
703 703 1093.5 704 703 1093.5 705 702.5 1094 
704.5 703 1094 703 703.5 1094 704 703.5 1094 
707.5 698 1095 708 697.5 1095 708 698 1094.5 
709 697.5 1095 709 698 1094.5 709.5 698 1095 
706.5 699 1095 707 698.5 1095 707 699 1094.5 
710 698.5 1095 710.5 699 1095 705.5 700 1095 
706 699.5 1095 706 700 1094.5 711 700 1094.5 
711 699.5 1095 711.5 700 1095 703.5 701 1095 
704 700.5 1095 705 700.5 1095 708 701 1094.5 
709 701 1094.5 710 701 1094.5 711 700.5 1095 
710.5 701 1095 702.5 702 1095 703 701.5 1095 
706 701.5 1095 705.5 702 1095 707 701.5 1095 
708 701.5 1095 709 701.5 1095 710 701.5 1095 
703 703 1094.5 703 702.5 1095 704 703 1094.5 
704 702.5 1095 705 702.5 1095 708 698 1095.5 
709 698 1095.5 706.5 699 1096 707 698.5 1096 
708 698.5 1096 709 698.5 1096 710 698.5 1096 
710.5 699 1096 706 700 1095.5 706.5 700 1096 
710.5 700 1096 711 700 1095.5 704 701 1095.5 
705 701 1095.5 706 701 1095.5 706.5 701 1096 
710.5 701 1096 703 702 1095.5 704 702 1095.5 
705 702 1095.5 707 701.5 1096 708 701.5 1096 
709 701.5 1096 710 701.5 1096 707 699 1096.5 
708 699 1096.5 709 699 1096.5 710 699 1096.5 
707 700 1096.5 708 700 1096.5 709 700 1096.5 
710 700 1096.5 707 701 1096.5 708 701 1096.5 
709 701 1096.5 710 701 1096.5 
CELLS 228 912
3 0 1 2 
3 1 3 4 
3 2 1 4 
3 3 5 6 
3 4 3 6 
3 5 7 6 
3 8 9 10 
3 9 0 2 
3 9 2 10 
3 10 2 11 
3 2 4 11 
3 4 12 11 
3 4 6 12 
3 6 13 12 
3 7 14 13 
3 6 7 13 
3 15 16 17 
3 16 18 19 
3 17 16 19 
3 18 20 21 
3 19 18 21 
3 20 8 10 
3 20 10 21 
3 21 10 22 
3 23 24 22 
3 23 22 11 
3 11 22 10 
3 11 12 25 
3 23 11 25 
3 12 13 26 
3 25 12 26 
3 13 14 26 
3 27 28 29 
3 28 15 17 
3 28 17 29 
3 29 17 30 
3 17 19 30 
3 19 31 30 
3 32 33 31 
3 32 31 21 
3 21 31 19 
3 21 22 34 
3 32 21 34 
3 22 24 34 
3 35 27 29 
3 36 35 29 
3 29 30 36 
3 30 37 36 
3 38 39 37 
3 38 37 31 
3 31 37 30 
3 31 33 38 
3 35 36 40 
3 36 37 41 
3 40 36 41 
3 37 39 41 
3 42 43 44 
3 43 45 46 
3 44 43 46 
3 45 47 46 
3 48 49 50 
3 44 1 0 
3 42 44 0 
3 42 0 50 
3 42 50 49 
3 46 1 44 
3 3 1 46 
3 47 3 46 
3 47 51 3 
3 51 5 3 
3 5 51 52 
3 7 5 52 
3 53 54 55 
3 50 9 8 
3 48 50 8 
3 48 8 55 
3 48 55 54 
3 50 0 9 
3 56 52 57 
3 56 14 52 
3 14 7 52 
3 57 58 56 
3 15 59 60 
3 16 15 60 
3 60 61 16 
3 16 61 18 
3 55 61 53 
3 55 20 61 
3 20 18 61 
3 55 8 20 
3 23 62 24 
3 25 62 23 
3 63 62 25 
3 26 63 25 
3 64 63 26 
3 64 65 66 
3 26 65 64 
3 26 56 65 
3 26 14 56 
3 56 58 65 
3 27 67 68 
3 28 27 68 
3 68 15 28 
3 59 15 68 
3 33 69 70 
3 32 69 33 
3 69 32 71 
3 32 34 71 
3 24 62 72 
3 24 72 34 
3 34 72 71 
3 62 63 73 
3 72 62 73 
3 63 64 74 
3 73 63 74 
3 64 66 74 
3 75 76 67 
3 75 67 35 
3 35 67 27 
3 76 77 78 
3 75 77 76 
3 39 78 77 
3 39 38 78 
3 38 79 78 
3 79 38 33 
3 70 79 33 
3 75 35 40 
3 77 75 40 
3 41 77 40 
3 77 41 39 
3 43 42 80 
3 45 43 80 
3 81 45 80 
3 45 81 47 
3 48 82 83 
3 49 48 83 
3 42 84 80 
3 42 49 84 
3 49 83 84 
3 80 85 81 
3 84 85 80 
3 81 51 47 
3 81 85 51 
3 85 86 51 
3 51 86 87 
3 52 51 87 
3 54 53 88 
3 88 48 54 
3 88 89 48 
3 89 82 48 
3 57 90 91 
3 57 52 90 
3 52 87 90 
3 57 91 58 
3 60 59 92 
3 61 60 92 
3 93 61 92 
3 53 61 93 
3 53 93 88 
3 88 93 94 
3 89 94 95 
3 88 94 89 
3 91 66 65 
3 91 90 66 
3 90 96 66 
3 91 65 58 
3 68 67 97 
3 59 68 97 
3 59 97 92 
3 92 97 98 
3 92 98 93 
3 93 98 99 
3 70 69 94 
3 70 94 99 
3 99 94 93 
3 95 94 69 
3 95 69 100 
3 100 69 71 
3 100 71 101 
3 71 72 101 
3 101 72 102 
3 72 73 102 
3 102 73 103 
3 73 74 103 
3 103 74 66 
3 96 103 66 
3 97 67 76 
3 98 97 76 
3 78 98 76 
3 99 98 78 
3 79 99 78 
3 99 79 70 
3 83 82 104 
3 84 83 104 
3 105 84 104 
3 85 84 105 
3 106 85 105 
3 86 85 106 
3 107 86 106 
3 86 107 87 
3 108 104 82 
3 89 108 82 
3 104 108 105 
3 105 108 109 
3 105 109 106 
3 106 109 110 
3 106 110 107 
3 107 110 111 
3 107 111 90 
3 87 107 90 
3 112 108 89 
3 95 112 89 
3 108 112 109 
3 109 112 113 
3 109 113 110 
3 110 113 114 
3 110 114 111 
3 111 114 115 
3 111 115 96 
3 90 111 96 
3 112 95 100 
3 113 112 100 
3 101 113 100 
3 114 113 101 
3 102 114 101 
3 115 114 102 
3 103 115 102 
3 115 103 96 

CELL_TYPES 228
5
5
5
5
5
5
5
5
5
5
5
5
5
5
5
5
5
5
5
5
5
5
5
5
5
5
5
5
5
5
5
5
5
5
5
5
5
5
5
5
5
5
5
5
5
5
5
5
5
5
5
5
5
5
5
5
5
5
5
5
5
5
5
5
5
5
5
5
5
5
5
5
5
5
5
5
5
5
5
5
5
5
5
5
5
5
5
5
5
5
5
5
5
5
5
5
5
5
5
5
5
5
5
5
5
5
5
5
5
5
5
5
5
5
5
5
5
5
5
5
5
5
5
5
5
5
5
5
5
5
5
5
5
5
5
5
5
5
5
5
5
5
5
5
5
5
5
5
5
5
5
5
5
5
5
5
5
5
5
5
5
5
5
5
5
5
5
5
5
5
5
5
5
5
5
5
5
5
5
5
5
5
5
5
5
5
5
5
5
5
5
5
5
5
5
5
5
5
5
5
5
5
5
5
5
5
5
5
5
5
5
5
5
5
5
5
5
5
5
5
5
5
5
5
5
5
5
5

CELL_DATA 228
SCALARS label int
LOOKUP_TABLE default
6 6 6 6 6 6 6 6 6 
6 6 6 6 6 6 6 6 6 
6 6 6 6 6 6 6 6 6 
6 6 6 6 6 6 6 6 6 
6 6 6 6 6 6 6 6 6 
6 6 6 6 6 6 6 6 6 
6 6 6 6 6 6 6 6 6 
6 6 6 6 6 6 6 6 6 
6 6 6 6 6 6 6 6 6 
6 6 6 6 6 6 6 6 6 
6 6 6 6 6 6 6 6 6 
6 6 6 6 6 6 6 6 6 
6 6 6 6 6 6 6 6 6 
6 6 6 6 6 6 6 6 6 
6 6 6 6 6 6 6 6 6 
6 6 6 6 6 6 6 6 6 
6 6 6 6 6 6 6 6 6 
6 6 6 6 6 6 6 6 6 
6 6 6 6 6 6 6 6 6 
6 6 6 6 6 6 6 6 6 
6 6 6 6 6 6 6 6 6 
6 6 6 6 6 6 6 6 6 
6 6 6 6 6 6 6 6 6 
6 6 6 6 6 6 6 6 6 
6 6 6 6 6 6 6 6 6 
6 6 6 
